ITEM: TIMESTEP
70000
ITEM: NUMBER OF ATOMS
2391
ITEM: BOX BOUNDS ff ff ff
-0.005905 0.167905
-0.000656 0.011154
-0.005905 0.167905
ITEM: ATOMS id type x y z radius vx vy vz density 
1756 1 0.004144 0.000729762 0.000832 0.000423 0 2.23961 0 2650 
2078 1 0.019324 0.000637572 0.000953 0.000116 0 2.23824 0 2650 
1188 1 0.020639 0.000556085 0.000927 0.000116 0 2.23849 0 2650 
65 1 0.027038 0.000163051 0.000510019 0.000116 0 1.01792 -8.01792 2650 
2317 1 0.014297 0.00138725 0.001071 0.000423 0 2.23961 0 2650 
1551 1 0.0856299 0.0015243 0.000919898 0.000656 0.551287 1.97103 -0.133068 2650 
820 1 0.110174 0.00104947 0.001096 0.000656 0 2.2398 0 2650 
2391 1 0.018068 0.000752753 0.001955 4.2e-05 0 2.23757 0 2650 
2340 1 0.031543 0.00054182 0.001662 0.000116 0 2.23914 0 2650 
692 1 0.038362 0.000610713 0.001808 0.000116 0 2.23824 0 2650 
1974 1 0.073895 0.000878225 0.001874 0.000423 0 2.23965 0 2650 
886 1 0.083304 0.000881887 0.00166379 0.000423 -0.821324 2.12897 0.317751 2650 
666 1 0.0841088 0.000921786 0.00124363 0.000423 -0.744671 2.02934 0.0764923 2650 
355 1 0.111145 0.000810388 0.001866 0.000423 0 2.23961 0 2650 
2142 1 0.126502 0.00086516 0.001576 0.000656 0 2.23969 0 2650 
2403 1 0.006528 0.00136357 0.001419 0.000423 0 2.23961 0 2650 
1432 1 0.016035 0.00138853 0.001465 0.000423 0 2.23961 0 2650 
213 1 0.044271 0.00119721 0.001469 0.000423 0 2.23963 0 2650 
1136 1 0.0940005 0.00116877 0.00163781 0.000423 0.000643196 2.23497 0.0606212 2650 
84 1 0.108185 0.00195358 0.00167286 0.000656 0 3.32418 2.9725 2650 
1066 1 0.011114 0.000329335 0.002419 0.000116 0 2.23825 0 2650 
1274 1 0.018553 0.000802077 0.002496 0.000423 0 2.23965 0 2650 
240 1 0.0510166 0.000758146 0.00209181 0.000423 -1.06533 1.37752 -1.50895 2650 
2298 1 0.077914 0.000556085 0.002756 0.000116 0 2.23849 0 2650 
2049 1 0.084987 0.000309191 0.002439 0.000116 0 2.23825 0 2650 
1138 1 0.101697 0.000779033 0.002616 0.000423 0 2.23961 0 2650 
985 1 0.116858 0.000903611 0.002415 0.000116 0 2.23917 0 2650 
1752 1 0.130965 0.000567255 0.002114 4.2e-05 0 2.23579 0 2650 
1664 1 0.158101 0.000273692 0.002099 0.000116 0 2.23815 0 2650 
1776 1 0.021661 0.00100602 0.002691 0.000116 0 2.23849 0 2650 
1422 1 0.104327 0.001066 0.002201 0.000116 0 2.23815 0 2650 
652 1 0.10982 0.00113641 0.002424 0.000423 0 2.23961 0 2650 
94 1 0.127492 0.000944854 0.002577 0.000116 0 2.23825 0 2650 
1370 1 0.043899 0.000469125 0.00280951 0.000116 5.56923 1.60978 -4.153 2650 
2089 1 0.055205 0.000444286 0.003367 4.2e-05 0 2.23579 0 2650 
2459 1 0.074324 0.000468411 0.003444 0.000116 0 2.23815 0 2650 
840 1 0.080646 0.000629558 0.003038 0.000116 0 2.23815 0 2650 
254 1 0.0943 0.000911566 0.003434 0.000116 0 2.23815 0 2650 
1356 1 0.137614 0.000724387 0.00327169 0.000423 1.10502 1.29652 -1.48652 2650 
658 1 0.150029 0.000339342 0.003124 0.000116 0 2.23918 0 2650 
1524 1 0.0221424 0.00130475 0.00303173 0.000423 0.0794613 2.08506 -0.0358902 2650 
2174 1 0.086202 0.000982931 0.003033 0.000116 0 2.23914 0 2650 
361 1 0.001268 0.00047065 0.003827 0.000116 0 2.23815 0 2650 
2182 1 0.0224484 0.000312781 0.00413325 4.2e-05 0.612096 1.88128 2.03166 2650 
1606 1 0.035843 0.000647217 0.003632 0.000423 0 2.23961 0 2650 
2047 1 0.0422945 0.000827856 0.00400601 0.000423 -0.109297 2.17458 0.0815035 2650 
300 1 0.0523886 0.000466238 0.00403514 0.000423 1.26543 0.145525 1.79239 2650 
1764 1 0.1048 0.000932606 0.003935 0.000423 0 2.23961 0 2650 
585 1 0.143349 0.000368824 0.004178 4.2e-05 0 2.2374 0 2650 
1410 1 0.150839 0.000268135 0.00416393 4.2e-05 0 0.771746 -7.77175 2650 
365 1 0.014662 0.00100754 0.003871 0.000656 0 2.23971 0 2650 
1208 1 0.0202535 0.00107884 0.00381559 0.000116 -3.89137 0.441907 1.61315 2650 
980 1 0.06939 0.00167688 0.003991 0.000656 0 2.23968 0 2650 
824 1 0.126159 0.00134528 0.003789 0.000423 0 2.23948 0 2650 
95 1 0.132166 0.00103727 0.00368553 0.000116 -4.06674 0.294724 -1.33682 2650 
648 1 0.133906 0.00122715 0.00425764 0.000423 0.0838685 2.08917 0.0275692 2650 
1932 1 0.141016 0.00155498 0.003702 0.000656 0 2.23969 0 2650 
1816 1 0.147786 0.00117544 0.003726 0.000423 0 2.23961 0 2650 
2050 1 0.0515032 0.00252714 0.00411137 0.000423 -5.51865 -1.1639 -1.19652 2650 
176 1 0.001438 0.000247793 0.00443 0.000116 0 2.23815 0 2650 
1679 1 0.042503 0.000433386 0.005076 0.000116 0 2.23917 0 2650 
424 1 0.061715 0.000622261 0.005053 0.000423 0 2.23961 0 2650 
1277 1 0.075006 0.000259949 0.005099 0.000116 0 2.23825 0 2650 
1635 1 0.088691 0.000688157 0.004515 0.000423 0 2.23951 0 2650 
990 1 0.106999 0.000701495 0.00454384 0.000116 14.0617 -4.82552 -14.5256 2650 
2366 1 0.108993 0.000890054 0.004482 0.000423 0 2.23961 0 2650 
573 1 0.117631 0.00079307 0.005072 4.2e-05 0 2.23579 0 2650 
1814 1 0.131875 0.000269559 0.004611 0.000116 0 2.23849 0 2650 
916 1 0.136231 0.000503362 0.00513328 0.000423 -1.264 0.226579 1.70038 2650 
892 1 0.0224173 0.00146024 0.00483588 0.000423 0.305053 2.72639 -0.54362 2650 
2258 1 0.115895 0.00103506 0.00444 0.000656 0 2.23969 0 2650 
1123 1 0.134858 0.00111882 0.004516 0.000423 0 2.23963 0 2650 
1883 1 0.158442 0.000941221 0.004964 0.000423 0 2.23951 0 2650 
1659 1 0.055425 0.000235329 0.005474 0.000116 0 2.23825 0 2650 
1061 1 0.0219897 0.00144559 0.00575205 0.000423 -0.305053 5.55156 1.32087 2650 
1806 1 0.067083 0.0013408 0.005229 0.000423 0 2.23948 0 2650 
1040 1 0.099414 0.0013936 0.005841 0.000423 0 2.23951 0 2650 
779 1 0.0588644 0.00240677 0.00570737 0.000423 3.85388 4.10676 0.835576 2650 
104 1 0.020242 0.000713448 0.006244 0.000423 0 2.23963 0 2650 
1819 1 0.038335 0.00030055 0.006672 0.000116 0 2.23815 0 2650 
188 1 0.064849 0.000592521 0.00643745 0.000423 0 1.71016 8.71016 2650 
628 1 0.073589 0.000619689 0.006621 0.000423 0 2.23948 0 2650 
218 1 0.080191 0.000596665 0.006156 0.000423 0 2.23961 0 2650 
1963 1 0.083996 0.000221553 0.006477 4.2e-05 0 2.23441 0 2650 
1820 1 0.09489 0.000907095 0.006065 4.2e-05 0 2.23579 0 2650 
2111 1 0.136698 0.000871506 0.006144 0.000423 0 2.23965 0 2650 
1852 1 0.154146 0.000588029 0.005953 0.000423 0 2.23963 0 2650 
831 1 0.025684 0.00115753 0.00637 0.000423 0 2.23961 0 2650 
960 1 0.00685 0.000249072 0.006958 0.000116 0 2.23815 0 2650 
1233 1 0.008632 0.000690396 0.007405 0.000423 0 2.23951 0 2650 
2425 1 0.026329 0.00071591 0.006758 0.000116 0 2.23824 0 2650 
1307 1 0.035736 0.000884421 0.006764 0.000116 0 2.23825 0 2650 
1810 1 0.043944 0.00028808 0.007253 0.000116 0 2.23815 0 2650 
575 1 0.113515 0.000705447 0.006827 0.000423 0 2.23961 0 2650 
2128 1 0.115633 0.000788888 0.006908 0.000116 0 2.23849 0 2650 
1387 1 0.140551 0.000644324 0.007306 0.000423 0 2.23948 0 2650 
1909 1 0.018376 0.00104267 0.007196 0.000423 0 2.23963 0 2650 
1531 1 0.029084 0.00102347 0.007413 0.000423 0 2.23961 0 2650 
2234 1 0.053132 0.00138439 0.007104 0.000423 0 2.23965 0 2650 
352 1 0.101534 0.00111333 0.00705174 0.000423 0.453302 1.57283 -1.58017 2650 
881 1 0.11556 0.00223252 0.00694473 0.000656 0.207126 -0.626163 -2.2878 2650 
554 1 0.003153 0.000777419 0.007568 4.2e-05 0 2.23579 0 2650 
917 1 0.028712 0.000797842 0.008079 0.000116 0 2.23849 0 2650 
18 1 0.083283 0.000770212 0.007617 0.000116 0 2.23914 0 2650 
200 1 0.105525 0.00055596 0.00817903 0.000423 0.247037 0.673181 -0.558684 2650 
2093 1 0.133208 0.000590576 0.007989 0.000423 0 2.23948 0 2650 
2385 1 0.0281607 0.000989385 0.00825818 0.000423 -0.879729 2.50774 -2.04498 2650 
706 1 0.0610384 0.00158664 0.00788095 0.000423 0.265473 2.54909 -0.409458 2650 
1960 1 0.094905 0.00127559 0.008097 0.000423 0 2.23963 0 2650 
1159 1 0.150815 0.00101356 0.007685 0.000423 0 2.23963 0 2650 
967 1 0.045216 0.000613947 0.009072 0.000423 0 2.23965 0 2650 
337 1 0.078317 0.00085716 0.00903 0.000656 0 2.23968 0 2650 
1946 1 0.09912 0.000524775 0.009084 4.2e-05 0 2.23579 0 2650 
5 1 0.137396 0.000357256 0.008337 0.000116 0 2.23918 0 2650 
1173 1 0.152246 0.000487448 0.009042 4.2e-05 0 2.23441 0 2650 
2121 1 0.1556 0.000674039 0.008517 4.2e-05 0 2.23729 0 2650 
2264 1 0.159154 0.000365456 0.008714 0.000116 0 2.23815 0 2650 
1517 1 0.004885 0.00121065 0.008365 0.000423 0 2.23963 0 2650 
366 1 0.039524 0.00139525 0.008361 0.000423 0 2.23961 0 2650 
508 1 0.101107 0.000989522 0.00853896 0.000656 -0.0949987 2.1825 0.331157 2650 
552 1 0.10526 0.00130204 0.00877677 0.000423 -0.505712 0.411121 1.14369 2650 
1353 1 0.135932 0.00146013 0.00907604 0.000656 0.000357376 2.23698 0.000135862 2650 
345 1 0.146378 0.00127682 0.00853575 0.000423 0 2.48902 9.48902 2650 
157 1 0.135416 0.00246002 0.00887993 4.2e-05 -1.36172 3.32842 -0.51768 2650 
165 1 0.041117 0.000472888 0.009537 0.000116 0 2.23815 0 2650 
2015 1 0.098067 0.000375169 0.009838 0.000116 0 2.23918 0 2650 
784 1 0.123205 0.000557565 0.00985503 0.000423 1.45671 1.77523 -0.546539 2650 
1194 1 0.138262 0.000365814 0.009231 0.000116 0 2.23849 0 2650 
1688 1 0.141376 0.00085653 0.009894 0.000656 0 2.23979 0 2650 
1412 1 0.145768 0.000741173 0.009397 0.000116 0 2.23825 0 2650 
404 1 0.117705 0.00137887 0.009716 0.000423 0 2.23948 0 2650 
1881 1 0.119492 0.00115952 0.009255 0.000656 0 2.23968 0 2650 
2197 1 0.0289326 0.000468096 0.0100525 0.000423 1.04788 1.01169 2.43586 2650 
1163 1 0.038505 0.000784304 0.010104 4.2e-05 0 2.23441 0 2650 
691 1 0.065911 0.000715031 0.010344 0.000423 0 2.23951 0 2650 
1455 1 0.069014 0.000882448 0.010395 0.000656 0 2.23979 0 2650 
177 1 0.102003 0.000868271 0.01063 0.000423 0 2.23948 0 2650 
1418 1 0.11782 0.000585186 0.010281 0.000116 0 2.23849 0 2650 
2145 1 0.121846 0.000626147 0.010365 0.000423 -1.86021 0.787823 0.697926 2650 
1335 1 0.129495 0.000862758 0.009967 0.000116 0 2.23849 0 2650 
212 1 0.148551 0.000588666 0.010262 0.000423 0 2.23961 0 2650 
623 1 0.017229 0.00118981 0.010022 0.000423 0 2.23951 0 2650 
2294 1 0.067079 0.00133254 0.010632 0.000423 0 2.23961 0 2650 
866 1 0.150967 0.00116714 0.010212 0.000423 0 2.23965 0 2650 
2373 1 0.056707 0.000292252 0.011468 4.2e-05 0 2.23579 0 2650 
2442 1 0.061003 0.000891422 0.011176 0.000116 0 2.23815 0 2650 
1548 1 0.098569 0.000478323 0.010796 0.000116 0 2.23815 0 2650 
1842 1 0.128813 0.00042141 0.011369 0.000116 0 2.23815 0 2650 
2046 1 0.131439 0.000904496 0.0108238 0.000116 -0.178249 1.93796 -0.108222 2650 
650 1 0.132476 0.000397212 0.0114537 4.2e-05 3.75537 -0.654127 2.28004 2650 
1717 1 0.139512 0.000416866 0.011002 4.2e-05 0 2.23418 0 2650 
972 1 0.159836 0.000735521 0.011222 0.000423 0 2.23961 0 2650 
1424 1 0.018389 0.00113737 0.010884 0.000423 0 2.23961 0 2650 
859 1 0.020765 0.000967482 0.011218 0.000423 0 2.23961 0 2650 
278 1 0.078922 0.000976921 0.011437 0.000116 0 2.23849 0 2650 
59 1 0.0813797 0.000972273 0.0112335 0.000656 4.54939 2.56968 5.02029 2650 
1886 1 0.024919 0.000241775 0.01171 0.000116 0 2.23914 0 2650 
2390 1 0.033791 0.000406702 0.012191 0.000116 0 2.23815 0 2650 
219 1 0.04317 0.000617088 0.011985 0.000116 0 2.23815 0 2650 
1733 1 0.093161 0.000308223 0.012041 0.000116 0 2.23815 0 2650 
1899 1 0.0947065 0.000418743 0.0117098 0.000116 1.87708 1.92082 0.258428 2650 
1112 1 0.151852 0.000885662 0.012176 4.2e-05 0 2.2374 0 2650 
460 1 0.003722 0.000996927 0.011587 0.000423 0 2.23965 0 2650 
1542 1 0.041337 0.0013367 0.011979 0.000423 0 2.23961 0 2650 
2040 1 0.0710814 0.00173028 0.0121997 0.000116 -0.83955 4.01824 -1.40681 2650 
1236 1 0.0936706 0.00100381 0.0115693 0.000423 -0.0535116 2.20749 0.000813506 2650 
67 1 0.096194 0.00157326 0.011854 0.000656 0 2.23979 0 2650 
2205 1 0.125225 0.000953163 0.012172 0.000116 0 2.23824 0 2650 
2067 1 0.141648 0.00136225 0.011964 0.000423 0 2.23951 0 2650 
197 1 0.001978 0.000376479 0.012413 4.2e-05 0 2.23729 0 2650 
2495 1 0.004327 0.000875336 0.013029 0.000423 0 2.23961 0 2650 
489 1 0.047522 0.000589618 0.012445 0.000423 0 2.23951 0 2650 
1205 1 0.074386 0.000269928 0.012556 0.000116 0 2.23918 0 2650 
738 1 0.077063 0.000845586 0.012617 0.000423 0 2.23963 0 2650 
294 1 0.083181 0.0008302 0.012766 0.000423 0 2.23948 0 2650 
2175 1 0.099879 0.000439315 0.012522 0.000116 0 2.23815 0 2650 
794 1 0.101794 0.00085653 0.012964 0.000656 0 2.23979 0 2650 
1598 1 0.140638 0.000266664 0.012616 0.000116 0 2.23825 0 2650 
895 1 0.045265 0.000991541 0.012269 0.000656 0 2.23968 0 2650 
597 1 0.052746 0.00108102 0.012275 0.000423 0 2.23948 0 2650 
723 1 0.135627 0.000951852 0.012992 0.000116 0 2.23815 0 2650 
1396 1 0.149437 0.00135303 0.012358 0.000423 0 2.23965 0 2650 
1535 1 0.115053 0.00436762 0.0125448 0.000423 -0.281499 -3.14964 3.10928 2650 
1719 1 0.032653 0.00069777 0.013588 0.000423 0 2.23963 0 2650 
265 1 0.051603 0.000419538 0.013845 0.000116 0 2.23849 0 2650 
459 1 0.065523 0.000414696 0.013362 0.000116 0 2.23815 0 2650 
954 1 0.0719273 0.000884265 0.0136173 0.000656 0.00469377 2.2299 0.00786524 2650 
2302 1 0.075182 0.000722083 0.013287 0.000423 0 2.23961 0 2650 
1241 1 0.080082 0.000262188 0.01365 0.000116 0 2.23825 0 2650 
2436 1 0.084941 0.000789426 0.013757 0.000116 0 2.23815 0 2650 
1385 1 0.09883 0.000492086 0.013076 0.000116 0 2.23824 0 2650 
1601 1 0.129629 0.000694465 0.013243 0.000116 0 2.23815 0 2650 
1348 1 0.132843 0.000330933 0.013729 0.000116 0 2.23824 0 2650 
582 1 0.146606 0.000668315 0.0136538 0.000423 0 0.804671 -7.80467 2650 
1284 1 0.020685 0.0013607 0.013078 0.000423 0 2.23963 0 2650 
2243 1 0.046104 0.00168264 0.013449 0.000656 0 2.23969 0 2650 
2120 1 0.056455 0.0013031 0.013138 0.000423 0 2.23961 0 2650 
1833 1 0.115349 0.00118628 0.013093 0.000423 0 2.23948 0 2650 
1649 1 0.14757 0.00122408 0.013797 0.000423 0 2.23963 0 2650 
27 1 0.030797 0.000505994 0.014592 0.000116 0 2.23914 0 2650 
48 1 0.035058 0.000509517 0.013916 0.000116 0 2.23917 0 2650 
152 1 0.048531 0.00025521 0.014359 0.000116 0 2.23914 0 2650 
1452 1 0.057611 0.000669845 0.014495 0.000116 0 2.23815 0 2650 
1135 1 0.075772 0.000836919 0.014316 0.000423 0 2.23948 0 2650 
1931 1 0.102655 0.000158105 0.014112 4.2e-05 0 2.23579 0 2650 
630 1 0.10425 0.00041151 0.014428 0.000116 0 2.23824 0 2650 
790 1 0.126922 0.000261927 0.01428 0.000116 0 2.23914 0 2650 
1458 1 0.142812 0.000859778 0.014111 0.000116 0 2.23914 0 2650 
1257 1 0.1497 0.000928543 0.014178 0.000116 0 2.23824 0 2650 
2097 1 0.157939 0.000447133 0.014523 4.2e-05 0 2.2374 0 2650 
1801 1 0.010927 0.000953371 0.014115 0.000423 0 2.23948 0 2650 
610 1 0.039545 0.00107111 0.013854 0.000423 0 2.23951 0 2650 
412 1 0.055062 0.00134917 0.014355 0.000423 0 2.23961 0 2650 
1002 1 0.008661 0.000284883 0.015305 0.000116 0 2.23815 0 2650 
1998 1 0.04633 0.00025119 0.01483 4.2e-05 0 2.23729 0 2650 
1308 1 0.051143 0.000368452 0.015138 0.000116 0 2.23918 0 2650 
724 1 0.051952 0.000443298 0.015061 0.000116 0 2.23914 0 2650 
1484 1 0.053459 0.000284883 0.015164 0.000116 0 2.23815 0 2650 
616 1 0.060796 0.000544509 0.014808 0.000116 0 2.23815 0 2650 
1160 1 0.068631 0.000679199 0.014917 0.000423 0 2.23951 0 2650 
2042 1 0.087817 0.000319414 0.015033 0.000116 0 2.23815 0 2650 
1790 1 0.014573 0.00100532 0.015413 0.000116 0 2.23914 0 2650 
413 1 0.0167135 0.00101325 0.0151082 0.000656 0.417779 1.76886 -8.54374 2650 
1207 1 0.0966066 0.00103856 0.015279 0.000656 -0.0548809 2.24356 0.0566914 2650 
211 1 0.124407 0.00125607 0.0149 0.000423 0 2.23961 0 2650 
2335 1 0.133151 0.00103435 0.01467 0.000423 0 2.23961 0 2650 
146 1 0.156933 0.00141741 0.015215 0.000656 0 2.23971 0 2650 
711 1 0.0251851 0.000819357 0.0161069 0.000423 -0.046851 2.25189 0.0392278 2650 
934 1 0.025862 0.000694254 0.0155402 0.000423 0.0468657 2.22742 -0.0392401 2650 
64 1 0.050143 0.00036098 0.015685 0.000116 0 2.23815 0 2650 
314 1 0.09027 0.000900375 0.016032 0.000116 0 2.23815 0 2650 
2177 1 0.11132 0.000603055 0.015853 0.000423 0 2.23951 0 2650 
418 1 0.149012 0.00067472 0.015862 0.000423 0 2.23951 0 2650 
1673 1 0.014714 0.00103339 0.015963 0.000423 0 2.23961 0 2650 
2091 1 0.104905 0.00155343 0.016209 0.000656 0 2.2398 0 2650 
396 1 0.0946149 0.00478962 0.015791 4.2e-05 3.06854 15.3779 17.2229 2650 
587 1 0.04028 0.000842719 0.016356 4.2e-05 0 2.23441 0 2650 
57 1 0.057367 0.000608823 0.016604 0.000423 0 2.23961 0 2650 
2246 1 0.079128 0.000188037 0.016383 4.2e-05 0 2.23441 0 2650 
1602 1 0.0442239 0.00101466 0.016354 0.000116 -0.191632 6.59657 0 2650 
1440 1 0.051411 0.00151691 0.016331 0.000656 0 2.23969 0 2650 
1809 1 0.084202 0.00104011 0.016295 0.000423 0 2.23961 0 2650 
1979 1 0.148755 0.00118568 0.016686 0.000423 0 2.23961 0 2650 
505 1 0.079356 0.000647167 0.017099 0.000116 0 2.23825 0 2650 
1739 1 0.0816446 0.000182137 0.0171283 4.2e-05 -6.37662 3.16277 -3.78615 2650 
2474 1 0.083353 0.00059121 0.017263 0.000116 0 2.23825 0 2650 
290 1 0.090462 0.000426996 0.017451 4.2e-05 0 2.2374 0 2650 
753 1 0.106579 0.000488931 0.017074 0.000116 0 2.23849 0 2650 
269 1 0.115081 0.000368052 0.017289 0.000116 0 2.23849 0 2650 
1589 1 0.13054 0.000458016 0.01743 0.000116 0 2.23917 0 2650 
88 1 0.147006 0.000917254 0.017217 0.000423 0 2.23963 0 2650 
1439 1 0.160999 0.000278837 0.017183 4.2e-05 0 2.23579 0 2650 
198 1 0.073518 0.00121608 0.017315 0.000423 0 2.23961 0 2650 
1537 1 0.088848 0.00100908 0.017169 0.000423 0 2.23963 0 2650 
1255 1 0.103597 0.00104809 0.0171085 0.000423 2.58578 1.74351 -0.774355 2650 
783 1 0.124383 0.0016881 0.0170168 0.000656 0 6.32585 0.130189 2650 
897 1 0.133624 0.000960539 0.017326 0.000116 0 2.23914 0 2650 
2192 1 0.0309091 0.00321881 0.0170739 0.000656 -6.87493 5.02947 -1.31107 2650 
922 1 0.101327 0.00321268 0.0172894 0.000423 -0.158534 4.66164 -0.876317 2650 
1211 1 0.099148 0.000679202 0.018421 0.000116 0 2.23849 0 2650 
1481 1 0.103663 0.000403646 0.0178534 0.000116 0.99118 2.16272 0.844179 2650 
359 1 0.125342 0.000676264 0.018465 0.000116 0 2.23825 0 2650 
1140 1 0.138485 0.000779945 0.0179446 0.000423 0.0665955 2.2499 0.235381 2650 
943 1 0.039469 0.00106696 0.018546 0.000116 0 2.23815 0 2650 
2486 1 0.042163 0.0010625 0.018514 0.000423 0 2.23961 0 2650 
1887 1 0.063275 0.00122408 0.018064 0.000423 0 2.23963 0 2650 
1304 1 0.082867 0.00106439 0.018006 0.000423 0 2.23951 0 2650 
600 1 0.0157167 0.000603034 0.0192286 0.000423 -1.33476 0.616903 2.85079 2650 
72 1 0.01798 0.00061519 0.019191 0.000116 0 2.23824 0 2650 
1129 1 0.030015 0.000933947 0.019214 0.000116 0 2.23815 0 2650 
1058 1 0.033484 0.00061485 0.018874 0.000116 0 2.23815 0 2650 
770 1 0.087399 0.000473847 0.018895 0.000116 0 2.23815 0 2650 
976 1 0.091588 0.000602402 0.019221 0.000116 0 2.23825 0 2650 
217 1 0.11624 0.000489365 0.01924 0.000116 0 2.23917 0 2650 
1271 1 0.034605 0.00125027 0.019326 0.000423 0 2.23951 0 2650 
2290 1 0.058947 0.00157258 0.018645 0.000656 0 2.23969 0 2650 
1782 1 0.109585 0.00107018 0.018854 0.000423 0 2.23961 0 2650 
103 1 0.134585 0.00106422 0.01865 0.000116 0 2.23849 0 2650 
1989 1 0.0440946 0.00438303 0.019002 0.000656 10.1656 1.11628 1.1651 2650 
1380 1 0.012312 0.000819003 0.019777 0.000423 0 2.23948 0 2650 
327 1 0.019879 0.000706729 0.020058 0.000423 0 2.23963 0 2650 
491 1 0.037832 0.000850847 0.020112 0.000116 0 2.23825 0 2650 
1941 1 0.102976 0.000387838 0.019466 0.000116 0 2.23815 0 2650 
1118 1 0.119151 0.000557626 0.0199764 0.000116 0 1.43589 -8.43589 2650 
467 1 0.008277 0.00119721 0.020141 0.000423 0 2.23963 0 2650 
863 1 0.056957 0.00135975 0.019571 0.000423 0 2.23965 0 2650 
2453 1 0.070332 0.00106707 0.019926 0.000116 0 2.23917 0 2650 
255 1 0.111674 0.000962329 0.019727 0.000423 0 2.23948 0 2650 
635 1 0.124633 0.00107018 0.019499 0.000423 0 2.23961 0 2650 
1191 1 0.147173 0.000988922 0.019927 0.000423 0 2.23963 0 2650 
2139 1 0.0976087 0.00431969 0.0199469 0.000423 -3.3797 -1.7183 1.96296 2650 
1493 1 0.014484 0.000600816 0.020771 0.000423 0 2.23951 0 2650 
2354 1 0.014959 0.000259949 0.020276 0.000116 0 2.23825 0 2650 
1217 1 0.018898 0.000591858 0.020259 0.000423 0 2.23951 0 2650 
809 1 0.022569 0.000802849 0.020657 0.000116 0 2.23917 0 2650 
37 1 0.034376 0.00069129 0.020581 0.000116 0 2.23824 0 2650 
2423 1 0.0359487 0.000574139 0.0206373 0.000423 -0.524783 -4.75206 2.48221 2650 
2372 1 0.083067 0.000722238 0.020627 0.000116 0 2.23917 0 2650 
2245 1 0.084222 0.000369406 0.020706 0.000116 0 2.23914 0 2650 
2433 1 0.120631 0.000438819 0.020189 0.000116 0 2.23914 0 2650 
888 1 0.136044 0.000756637 0.020613 0.000423 0 2.23961 0 2650 
1861 1 0.14233 0.000618763 0.020248 0.000116 0 2.23849 0 2650 
501 1 0.149638 0.000710889 0.020687 4.2e-05 0 2.23441 0 2650 
231 1 0.151138 0.000841107 0.020606 0.000423 0 2.23963 0 2650 
1065 1 0.027926 0.00130342 0.020581 0.000423 0 2.23961 0 2650 
2085 1 0.051831 0.00103948 0.02068 0.000423 0 2.23965 0 2650 
1643 1 0.072452 0.00131048 0.020494 0.000423 0 2.23965 0 2650 
1849 1 0.097369 0.00112425 0.02094 0.000423 0 2.23961 0 2650 
2451 1 0.048261 0.000690459 0.021077 4.2e-05 0 2.23441 0 2650 
746 1 0.081277 0.000614286 0.020981 0.000116 0 2.23849 0 2650 
429 1 0.08347 0.00070225 0.021246 0.000423 0 2.23963 0 2650 
1292 1 0.094998 0.00062019 0.021521 0.000116 0 2.23914 0 2650 
2172 1 0.121251 0.000341191 0.021576 0.000116 0 2.23849 0 2650 
1669 1 0.134981 0.000612447 0.02153 0.000423 -9.14817 2.14817 0 2650 
2349 1 0.144223 0.000825105 0.021596 0.000423 0 2.23961 0 2650 
111 1 0.145579 0.000221214 0.0217311 0.000116 0 2.1658 9.1658 2650 
1228 1 0.0520348 0.00102984 0.021768 0.000116 -10.5319 4.07973 16.2441 2650 
2094 1 0.153133 0.00138439 0.021671 0.000423 0 2.23965 0 2650 
2123 1 0.020135 0.00079823 0.022133 0.000423 0 2.23961 0 2650 
751 1 0.020676 0.000625478 0.022507 0.000116 0 2.23849 0 2650 
2210 1 0.034314 0.000623715 0.022213 0.000116 0 2.23917 0 2650 
2416 1 0.041036 0.000892293 0.021765 0.000423 0 2.23961 0 2650 
674 1 0.0443738 0.000817884 0.021928 0.000656 8.84066 1.84066 0 2650 
414 1 0.066167 0.000257071 0.021955 0.000116 0 2.23824 0 2650 
2096 1 0.096139 0.000409097 0.022521 4.2e-05 0 2.2374 0 2650 
1243 1 0.061472 0.000967462 0.021782 4.2e-05 0 2.23579 0 2650 
493 1 0.126871 0.00099273 0.022504 0.000423 0 2.23951 0 2650 
1994 1 0.142649 0.00111721 0.022027 0.000423 0 2.23961 0 2650 
1560 1 0.145212 0.00120745 0.022301 0.000423 0 2.23965 0 2650 
2270 1 0.000832 0.000764003 0.023295 0.000423 0 2.23965 0 2650 
249 1 0.022254 0.000244936 0.0233 0.000116 0 2.23849 0 2650 
993 1 0.028135 0.000513174 0.023309 0.000116 0 2.23815 0 2650 
1986 1 0.066282 0.000884852 0.022706 4.2e-05 0 2.23441 0 2650 
1504 1 0.095192 0.000756841 0.022785 0.000116 0 2.23825 0 2650 
1642 1 0.137147 0.000757284 0.023316 0.000423 0 2.23965 0 2650 
82 1 0.154961 0.000882994 0.023145 0.000423 0 2.23951 0 2650 
923 1 0.161252 0.000728449 0.023014 0.000116 0 2.23849 0 2650 
38 1 0.0180684 0.00112342 0.0232661 0.000423 1.51649 1.96346 1.9654 2650 
2223 1 0.0636062 0.00121307 0.0230359 0.000423 -0.895355 -4.61929 -1.78423 2650 
2314 1 0.076991 0.00106646 0.022691 0.000116 0 2.23849 0 2650 
1246 1 0.080504 0.000998572 0.023289 0.000116 0 2.23825 0 2650 
1895 1 0.107656 0.000951463 0.023279 4.2e-05 0 2.23729 0 2650 
646 1 0.140105 0.000944764 0.023238 0.000423 0 2.23961 0 2650 
2115 1 0.016765 0.000684575 0.02409 0.000116 0 2.23824 0 2650 
518 1 0.03397 0.000781408 0.023721 0.000116 0 2.23914 0 2650 
1937 1 0.043278 0.000836775 0.023552 0.000116 0 2.23824 0 2650 
1263 1 0.073086 0.000602104 0.023941 0.000423 0 2.23961 0 2650 
446 1 0.101555 0.000318667 0.023987 4.2e-05 0 2.2376 0 2650 
400 1 0.131378 0.000277094 0.023773 4.2e-05 0 2.23441 0 2650 
1812 1 0.145705 0.00082319 0.02396 0.000423 0 2.23963 0 2650 
1456 1 0.076694 0.0010396 0.023974 0.000116 0 2.23849 0 2650 
879 1 0.116971 0.000955303 0.023556 4.2e-05 0 2.23418 0 2650 
2136 1 0.002327 0.000247174 0.024891 0.000116 0 2.23849 0 2650 
1583 1 0.0232052 0.00066512 0.0243091 0.000423 -0.153549 2.05382 -0.0767161 2650 
339 1 0.035201 0.000817755 0.024381 0.000423 0 2.23965 0 2650 
15 1 0.048347 0.00070571 0.0247106 0.000116 0 1.50408 8.50408 2650 
2381 1 0.054499 0.000341191 0.024569 0.000116 0 2.23849 0 2650 
958 1 0.054851 0.000534613 0.024231 0.000116 0 2.23824 0 2650 
828 1 0.159183 0.000544059 0.024535 0.000116 0 2.23914 0 2650 
1153 1 0.0233756 0.00120299 0.02439 0.000116 -10.2965 11.8865 -5.41198 2650 
617 1 0.041439 0.00122564 0.024608 0.000423 0 2.23951 0 2650 
47 1 0.085962 0.00140421 0.024809 0.000423 0 2.23961 0 2650 
544 1 0.096732 0.00150571 0.024122 0.000656 0 2.23969 0 2650 
1056 1 0.129981 0.00095956 0.024264 0.000656 0 2.23979 0 2650 
2269 1 0.138223 0.00108362 0.024436 0.000423 0 2.23961 0 2650 
1225 1 0.148005 0.00166792 0.024592 0.000656 0 2.23968 0 2650 
2056 1 0.156342 0.000133515 0.0250871 0.000116 0.234862 1.0986 -3.43682 2650 
2375 1 0.039706 0.00044906 0.024993 0.000116 0 2.23917 0 2650 
1374 1 0.0633371 0.000815104 0.0253148 0.000423 -0.200178 2.24298 0.113202 2650 
2356 1 0.082785 0.000354266 0.025415 0.000116 0 2.23815 0 2650 
1745 1 0.10678 0.000744144 0.025316 0.000423 0 2.23951 0 2650 
120 1 0.124076 0.000688157 0.025565 0.000423 0 2.23951 0 2650 
2009 1 0.136828 0.000892927 0.0252556 0.000656 0.00332919 2.2293 -0.0206489 2650 
2499 1 0.137558 0.000699397 0.025442 4.2e-05 0 2.23441 0 2650 
331 1 0.008847 0.00103598 0.025112 0.000116 0 2.23824 0 2650 
1067 1 0.015958 0.00163427 0.025108 0.000423 -2.04551 2.64378 7.81071 2650 
1935 1 0.054785 0.00105481 0.025329 0.000116 0 2.23815 0 2650 
719 1 0.0647579 0.00128084 0.0251243 0.000656 0.244649 2.443 0.295326 2650 
437 1 0.068747 0.00121266 0.024959 0.000656 0 2.23979 0 2650 
1104 1 0.096386 0.00117096 0.025692 0.000423 0 2.23961 0 2650 
2409 1 0.045373 0.000298 0.026375 0.000116 0 2.23825 0 2650 
2469 1 0.071532 0.000232818 0.025811 0.000116 0 2.23914 0 2650 
2283 1 0.075251 0.000790705 0.026091 0.000116 0 2.23815 0 2650 
930 1 0.077129 0.000868618 0.025773 0.000423 0 2.23961 0 2650 
1319 1 0.091555 0.000612342 0.0258 0.000423 0 2.23961 0 2650 
130 1 0.115638 0.000552519 0.026445 0.000116 0 2.23824 0 2650 
2126 1 0.133494 0.000538189 0.025818 4.2e-05 0 2.23579 0 2650 
1942 1 0.145658 0.000509124 0.025799 4.2e-05 0 2.23579 0 2650 
86 1 0.158832 0.000660494 0.026032 0.000116 0 2.23914 0 2650 
1025 1 0.086945 0.00133741 0.025794 0.000656 0 2.23969 0 2650 
631 1 0.153063 0.00100488 0.025957 0.000423 0 2.23948 0 2650 
2149 1 0.020829 0.000600038 0.02721 0.000116 0 2.23914 0 2650 
2030 1 0.02889 0.000368653 0.02685 0.000116 0 2.23815 0 2650 
1340 1 0.0455595 0.000876012 0.0271606 0.000656 -4.45895 1.81012 -3.1895 2650 
1117 1 0.089455 0.000879816 0.026925 0.000423 0 2.23961 0 2650 
441 1 0.136608 0.000245919 0.0266181 0.000116 -0.601663 1.16007 3.73175 2650 
70 1 0.0480214 0.00160611 0.027006 0.000423 -1.54696 5.54718 0 2650 
1638 1 0.051593 0.00125231 0.026922 0.000656 0 2.23969 0 2650 
1777 1 0.057211 0.000982485 0.026905 0.000423 0 2.23948 0 2650 
2262 1 0.110514 0.00102347 0.026869 0.000423 0 2.23961 0 2650 
2405 1 0.119159 0.00115648 0.0270512 0.000423 0 6.79391 -0.00610882 2650 
977 1 0.13334 0.000967525 0.026793 4.2e-05 0 2.23441 0 2650 
428 1 0.156241 0.00106534 0.0265757 0.000423 -0.00616357 2.16611 0.0901936 2650 
1722 1 0.015485 0.000672178 0.02792 0.000423 0 2.23965 0 2650 
458 1 0.023778 0.000339886 0.02804 0.000116 0 2.23824 0 2650 
721 1 0.102779 0.000833503 0.0272661 0.000656 0.827842 6.08159 -1.7389 2650 
571 1 0.123616 0.000736802 0.027453 0.000423 0 2.23961 0 2650 
2107 1 0.138375 0.000915113 0.027461 0.000116 0 2.23824 0 2650 
1195 1 0.159417 0.000438183 0.027491 4.2e-05 0 2.2374 0 2650 
266 1 0.0786532 0.00121886 0.027512 0.000423 -11.5448 4.54476 0 2650 
1086 1 0.110601 0.00133735 0.027997 0.000423 0 2.23965 0 2650 
1400 1 0.131684 0.0010532 0.027456 0.000423 0 2.23951 0 2650 
1076 1 0.006655 0.00020679 0.028645 4.2e-05 0 2.23763 0 2650 
1662 1 0.009982 0.00034851 0.028422 0.000116 0 2.23815 0 2650 
567 1 0.012167 0.000897208 0.028577 0.000116 0 2.23824 0 2650 
1740 1 0.044597 0.000731234 0.028771 0.000116 0 2.23815 0 2650 
2359 1 0.065394 0.000923072 0.028807 0.000656 0 2.23969 0 2650 
2059 1 0.066155 0.000176865 0.028516 4.2e-05 0 2.23441 0 2650 
261 1 0.068779 0.000663522 0.028837 0.000423 0 2.23951 0 2650 
318 1 0.0778078 0.000630947 0.0284789 0.000423 -0.733189 1.98562 -0.904818 2650 
1320 1 0.088834 0.000442845 0.028395 0.000116 0 2.23824 0 2650 
882 1 0.08832 0.000553461 0.028089 0.000116 0 2.23815 0 2650 
1562 1 0.106581 0.000450309 0.028147 4.2e-05 0 2.23729 0 2650 
1490 1 0.010825 0.000662586 0.0292025 0.000423 0 1.17608 8.17608 2650 
271 1 0.023654 0.000558324 0.02955 0.000116 0 2.23849 0 2650 
66 1 0.028179 0.000901577 0.028997 0.000423 0 2.23963 0 2650 
956 1 0.077236 0.000938046 0.029149 0.000423 0 2.23961 0 2650 
682 1 0.088745 0.000255473 0.029072 0.000116 0 2.23825 0 2650 
2494 1 0.112264 0.000235643 0.029261 0.000116 0 2.23815 0 2650 
1470 1 0.12141 0.000526377 0.029441 4.2e-05 0 2.23729 0 2650 
2058 1 0.131859 0.000516408 0.0288663 0.000423 0.116053 -0.993838 -2.27377 2650 
1622 1 0.148534 0.000740187 0.028927 0.000116 0 2.23815 0 2650 
431 1 0.152539 0.000933963 0.029046 0.000656 0 2.23979 0 2650 
1930 1 0.155149 0.000653881 0.029092 0.000116 0 2.23825 0 2650 
1915 1 0.030283 0.00167145 0.029516 0.000656 0 2.23969 0 2650 
1763 1 0.047656 0.00130919 0.029583 0.000423 0 2.23963 0 2650 
1177 1 0.0787423 0.00117296 0.0296321 0.000423 0.940171 1.44594 1.16025 2650 
2480 1 0.014403 0.000587071 0.029889 0.000423 0 2.23965 0 2650 
944 1 0.0560097 0.000385084 0.0297135 0.000116 4.01799 1.62777 -3.43374 2650 
709 1 0.0731 0.000920924 0.030266 4.2e-05 0 2.23441 0 2650 
71 1 0.106422 0.000674092 0.030376 0.000423 0 2.23961 0 2650 
620 1 0.130104 0.000587379 0.029694 0.000423 0 2.23951 0 2650 
1489 1 0.085601 0.00137701 0.029983 0.000423 0 2.23961 0 2650 
2170 1 0.091337 0.00126702 0.030379 0.000656 0 2.23968 0 2650 
1603 1 0.023098 0.000628979 0.030883 0.000423 0 2.23961 0 2650 
877 1 0.039966 0.000541969 0.03105 0.000116 0 2.23825 0 2650 
1987 1 0.071649 0.000275617 0.030617 0.000116 0 2.23825 0 2650 
1943 1 0.078682 0.000528539 0.031037 0.000116 0 2.23825 0 2650 
1238 1 0.104414 0.000359701 0.030915 0.000116 0 2.23815 0 2650 
774 1 0.11455 0.000876741 0.030516 0.000116 0 2.23917 0 2650 
832 1 0.13177 0.000414944 0.0306086 0.000423 -0.110016 -3.40098 2.15551 2650 
1775 1 0.150402 0.000378885 0.030808 4.2e-05 0 2.23418 0 2650 
1950 1 0.022167 0.00137157 0.030465 0.000423 0 2.23961 0 2650 