ITEM: TIMESTEP
1
ITEM: NUMBER OF ATOMS
4382
ITEM: BOX BOUNDS ff ff ff
-0.150000 0.150000 
-0.150000 0.06
-0.150000 0.150000 
ITEM: ATOMS id type x y z radius vx vy vz
1 1 0.008519 0.011614 -0.011722 0.000656 0.000000 -0.000588 0.000000 
2 1 -0.013491 0.001827 0.006245 0.000656 0.000000 -0.000588 0.000000 
3 1 0.005906 0.004260 0.012175 0.000656 0.000000 -0.000588 0.000000 
4 1 0.013287 0.013640 -0.006570 0.000656 0.000000 -0.000588 0.000000 
5 1 0.003551 0.010866 0.015858 0.000656 0.000000 -0.000588 0.000000 
6 1 -0.002628 0.007152 0.002521 0.000656 0.000000 -0.000588 0.000000 
7 1 -0.008025 -0.001055 -0.009432 0.000656 0.000000 -0.000588 0.000000 
8 1 0.011146 0.008411 -0.005742 0.000656 0.000000 -0.000588 0.000000 
9 1 0.007130 0.007511 -0.007141 0.000656 0.000000 -0.000588 0.000000 
10 1 0.006858 -0.001532 0.002596 0.000656 0.000000 -0.000588 0.000000 
11 1 0.002194 0.003490 -0.004856 0.000656 0.000000 -0.000588 0.000000 
12 1 0.012201 0.010332 0.010235 0.000656 0.000000 -0.000588 0.000000 
13 1 -0.010888 0.008026 0.010375 0.000656 0.000000 -0.000588 0.000000 
14 1 0.004170 0.010230 -0.007182 0.000656 0.000000 -0.000588 0.000000 
15 1 -0.012293 0.005798 -0.002120 0.000656 0.000000 -0.000588 0.000000 
16 1 -0.008746 0.007935 0.012569 0.000656 0.000000 -0.000588 0.000000 
17 1 0.009943 0.012068 -0.006900 0.000656 0.000000 -0.000588 0.000000 
18 1 -0.012221 0.011285 0.005946 0.000656 0.000000 -0.000588 0.000000 
19 1 -0.009636 0.005942 0.001489 0.000656 0.000000 -0.000588 0.000000 
20 1 0.005101 0.000617 -0.007549 0.000656 0.000000 -0.000588 0.000000 
21 1 0.000606 0.000862 -0.003654 0.000656 0.000000 -0.000588 0.000000 
22 1 0.001137 0.011808 0.005394 0.000656 0.000000 -0.000588 0.000000 
23 1 0.001600 -0.001998 0.015643 0.000656 0.000000 -0.000588 0.000000 
24 1 -0.007822 0.007542 0.006340 0.000656 0.000000 -0.000588 0.000000 
25 1 -0.005958 -0.000261 -0.005655 0.000656 0.000000 -0.000588 0.000000 
26 1 -0.015354 0.003549 0.003033 0.000656 0.000000 -0.000588 0.000000 
27 1 -0.001479 0.001135 0.004364 0.000656 0.000000 -0.000588 0.000000 
28 1 0.001150 -0.002074 -0.015610 0.000656 0.000000 -0.000588 0.000000 
29 1 0.007933 0.009227 0.001629 0.000656 0.000000 -0.000588 0.000000 
30 1 0.005959 0.006183 0.006782 0.000656 0.000000 -0.000588 0.000000 
31 1 -0.005083 0.010980 -0.000142 0.000656 0.000000 -0.000588 0.000000 
32 1 0.012233 0.006489 -0.000111 0.000656 0.000000 -0.000588 0.000000 
33 1 0.003564 0.000326 0.002573 0.000656 0.000000 -0.000588 0.000000 
34 1 0.006241 0.008096 -0.007964 0.000656 0.000000 -0.000588 0.000000 
35 1 0.008271 -0.000757 0.011618 0.000656 0.000000 -0.000588 0.000000 
36 1 -0.007707 0.002639 -0.004219 0.000656 0.000000 -0.000588 0.000000 
37 1 -0.007050 0.001886 0.001032 0.000656 0.000000 -0.000588 0.000000 
38 1 -0.006567 0.000617 -0.012222 0.000656 0.000000 -0.000588 0.000000 
39 1 -0.005563 0.005010 -0.014782 0.000656 0.000000 -0.000588 0.000000 
40 1 0.004306 0.011951 -0.014396 0.000656 0.000000 -0.000588 0.000000 
41 1 -0.000479 0.001984 0.003500 0.000656 0.000000 -0.000588 0.000000 
42 1 -0.012221 0.009200 0.002118 0.000656 0.000000 -0.000588 0.000000 
43 1 -0.001264 0.008389 -0.011144 0.000656 0.000000 -0.000588 0.000000 
44 1 -0.014470 0.002927 -0.004448 0.000656 0.000000 -0.000588 0.000000 
45 1 -0.012673 0.008977 -0.000448 0.000656 0.000000 -0.000588 0.000000 
46 1 0.011236 0.006845 -0.011396 0.000656 0.000000 -0.000588 0.000000 
47 1 0.008641 -0.000600 0.002860 0.000656 0.000000 -0.000588 0.000000 
48 1 0.003735 0.010966 0.001199 0.000656 0.000000 -0.000588 0.000000 
49 1 0.012115 0.003232 -0.002591 0.000656 0.000000 -0.000588 0.000000 
50 1 0.003304 -0.002603 0.008172 0.000656 0.000000 -0.000588 0.000000 
51 1 0.006507 -0.001271 0.012240 0.000656 0.000000 -0.000588 0.000000 
52 1 -0.004407 0.000770 0.005705 0.000656 0.000000 -0.000588 0.000000 
53 1 -0.000332 0.005586 0.004530 0.000656 0.000000 -0.000588 0.000000 
54 1 0.004310 0.011374 -0.011643 0.000656 0.000000 -0.000588 0.000000 
55 1 0.007714 0.001745 -0.007741 0.000656 0.000000 -0.000588 0.000000 
56 1 -0.005137 0.007850 -0.006986 0.000656 0.000000 -0.000588 0.000000 
57 1 0.009783 0.008545 0.008510 0.000656 0.000000 -0.000588 0.000000 
58 1 -0.010528 0.010633 0.005055 0.000656 0.000000 -0.000588 0.000000 
59 1 0.004587 0.008231 -0.008690 0.000656 0.000000 -0.000588 0.000000 
60 1 0.004773 0.008263 -0.001536 0.000656 0.000000 -0.000588 0.000000 
61 1 0.002734 0.009196 0.015991 0.000656 0.000000 -0.000588 0.000000 
62 1 -0.014547 0.013414 0.004043 0.000656 0.000000 -0.000588 0.000000 
63 1 -0.015269 0.008729 0.004176 0.000656 0.000000 -0.000588 0.000000 
64 1 0.001692 0.005824 -0.006872 0.000656 0.000000 -0.000588 0.000000 
65 1 0.015241 0.007853 0.001808 0.000656 0.000000 -0.000588 0.000000 
66 1 -0.006524 0.013387 0.009392 0.000656 0.000000 -0.000588 0.000000 
67 1 -0.002461 -0.000649 0.006179 0.000656 0.000000 -0.000588 0.000000 
68 1 -0.007053 -0.001144 -0.001365 0.000656 0.000000 -0.000588 0.000000 
69 1 -0.004972 0.004013 0.015376 0.000656 0.000000 -0.000588 0.000000 
70 1 -0.010557 0.011256 0.008922 0.000656 0.000000 -0.000588 0.000000 
71 1 -0.003129 0.013354 -0.012928 0.000656 0.000000 -0.000588 0.000000 
72 1 -0.014331 0.007303 0.003428 0.000656 0.000000 -0.000588 0.000000 
73 1 -0.005198 0.010200 0.002034 0.000656 0.000000 -0.000588 0.000000 
74 1 0.010043 0.003475 -0.011008 0.000656 0.000000 -0.000588 0.000000 
75 1 0.000536 0.003450 0.004458 0.000656 0.000000 -0.000588 0.000000 
76 1 0.011538 0.002691 0.000173 0.000656 0.000000 -0.000588 0.000000 
77 1 -0.010071 0.006645 0.007307 0.000656 0.000000 -0.000588 0.000000 
78 1 0.009728 0.010930 0.012393 0.000656 0.000000 -0.000588 0.000000 
79 1 -0.004213 0.008243 -0.010520 0.000656 0.000000 -0.000588 0.000000 
80 1 -0.012816 0.004008 -0.008558 0.000656 0.000000 -0.000588 0.000000 
81 1 0.011494 0.010412 0.003966 0.000656 0.000000 -0.000588 0.000000 
82 1 0.001220 0.002168 0.005427 0.000656 0.000000 -0.000588 0.000000 
83 1 0.005122 -0.000442 0.000556 0.000656 0.000000 -0.000588 0.000000 
84 1 -0.002846 -0.002296 0.008129 0.000656 0.000000 -0.000588 0.000000 
85 1 0.006468 0.005374 0.004155 0.000656 0.000000 -0.000588 0.000000 
86 1 0.004004 0.009388 -0.014536 0.000656 0.000000 -0.000588 0.000000 
87 1 0.012660 0.007751 0.008396 0.000656 0.000000 -0.000588 0.000000 
88 1 0.011361 -0.001943 -0.004012 0.000656 0.000000 -0.000588 0.000000 
89 1 0.014359 0.002241 -0.000312 0.000656 0.000000 -0.000588 0.000000 
90 1 -0.005513 0.001932 -0.001287 0.000656 0.000000 -0.000588 0.000000 
91 1 0.012545 0.012742 0.003775 0.000656 0.000000 -0.000588 0.000000 
92 1 0.007164 -0.001512 0.013983 0.000656 0.000000 -0.000588 0.000000 
93 1 -0.002084 -0.000110 0.000847 0.000656 0.000000 -0.000588 0.000000 
94 1 0.011054 -0.000322 -0.002354 0.000656 0.000000 -0.000588 0.000000 
95 1 -0.005003 0.009336 0.007749 0.000656 0.000000 -0.000588 0.000000 
96 1 -0.007737 0.011742 -0.004444 0.000656 0.000000 -0.000588 0.000000 
97 1 -0.001143 0.000240 -0.012442 0.000656 0.000000 -0.000588 0.000000 
98 1 -0.010921 0.010502 -0.007310 0.000656 0.000000 -0.000588 0.000000 
99 1 0.010066 0.006007 0.007642 0.000656 0.000000 -0.000588 0.000000 
100 1 0.012734 0.009358 -0.002286 0.000656 0.000000 -0.000588 0.000000 
101 1 -0.014996 0.000513 0.004150 0.000656 0.000000 -0.000588 0.000000 
102 1 -0.005044 0.000684 -0.014923 0.000656 0.000000 -0.000588 0.000000 
103 1 -0.008176 0.010814 -0.002862 0.000656 0.000000 -0.000588 0.000000 
104 1 -0.008722 0.002436 -0.013703 0.000656 0.000000 -0.000588 0.000000 
105 1 0.003799 -0.000276 -0.001307 0.000656 0.000000 -0.000588 0.000000 
106 1 0.004425 0.008347 0.006401 0.000656 0.000000 -0.000588 0.000000 
107 1 -0.001873 0.002941 -0.001878 0.000656 0.000000 -0.000588 0.000000 
108 1 -0.006656 0.003839 0.006947 0.000656 0.000000 -0.000588 0.000000 
109 1 -0.008513 0.004230 0.010128 0.000656 0.000000 -0.000588 0.000000 
110 1 -0.006357 0.010768 -0.007665 0.000656 0.000000 -0.000588 0.000000 
111 1 -0.001474 -0.001285 -0.012849 0.000656 0.000000 -0.000588 0.000000 
112 1 -0.009511 -0.001927 0.010265 0.000656 0.000000 -0.000588 0.000000 
113 1 -0.007260 0.002731 0.012990 0.000656 0.000000 -0.000588 0.000000 
114 1 -0.005521 -0.001606 -0.013445 0.000656 0.000000 -0.000588 0.000000 
115 1 -0.013911 0.009343 0.003351 0.000656 0.000000 -0.000588 0.000000 
116 1 0.008381 -0.001091 -0.008978 0.000656 0.000000 -0.000588 0.000000 
117 1 0.001641 0.013363 0.014279 0.000656 0.000000 -0.000588 0.000000 
118 1 -0.004668 -0.001457 0.004485 0.000656 0.000000 -0.000588 0.000000 
119 1 -0.003538 0.012145 -0.010916 0.000656 0.000000 -0.000588 0.000000 
120 1 0.002379 0.013323 -0.015333 0.000656 0.000000 -0.000588 0.000000 
121 1 0.011372 0.010854 0.001731 0.000656 0.000000 -0.000588 0.000000 
122 1 0.007000 -0.002563 0.010414 0.000656 0.000000 -0.000588 0.000000 
123 1 -0.007419 0.011039 0.003685 0.000656 0.000000 -0.000588 0.000000 
124 1 0.010107 -0.000283 -0.000946 0.000656 0.000000 -0.000588 0.000000 
125 1 0.015130 -0.001647 -0.003398 0.000656 0.000000 -0.000588 0.000000 
126 1 0.004341 0.012970 -0.009812 0.000656 0.000000 -0.000588 0.000000 
127 1 0.003586 0.001210 -0.015344 0.000656 0.000000 -0.000588 0.000000 
128 1 0.011473 0.001329 -0.000792 0.000656 0.000000 -0.000588 0.000000 
129 1 -0.003874 0.011456 -0.014709 0.000656 0.000000 -0.000588 0.000000 
130 1 0.001137 0.012682 0.010095 0.000656 0.000000 -0.000588 0.000000 
131 1 -0.003990 0.001249 -0.004137 0.000656 0.000000 -0.000588 0.000000 
132 1 0.001078 -0.001458 -0.000352 0.000656 0.000000 -0.000588 0.000000 
133 1 0.008358 0.007714 -0.004451 0.000656 0.000000 -0.000588 0.000000 
134 1 0.012785 0.006802 0.001643 0.000656 0.000000 -0.000588 0.000000 
135 1 0.008430 0.001099 -0.011312 0.000656 0.000000 -0.000588 0.000000 
136 1 -0.002465 0.009639 -0.009320 0.000656 0.000000 -0.000588 0.000000 
137 1 -0.000172 0.003787 -0.004799 0.000656 0.000000 -0.000588 0.000000 
138 1 -0.000592 0.013220 -0.006299 0.000656 0.000000 -0.000588 0.000000 
139 1 -0.001969 0.002989 0.013443 0.000656 0.000000 -0.000588 0.000000 
140 1 -0.006452 0.011990 -0.009074 0.000656 0.000000 -0.000588 0.000000 
141 1 -0.010784 0.009419 -0.004312 0.000656 0.000000 -0.000588 0.000000 
142 1 -0.007433 -0.000270 0.006993 0.000656 0.000000 -0.000588 0.000000 
143 1 0.003104 0.011707 0.004116 0.000656 0.000000 -0.000588 0.000000 
144 1 -0.012469 0.013263 0.006634 0.000656 0.000000 -0.000588 0.000000 
145 1 0.002459 0.004979 0.004991 0.000656 0.000000 -0.000588 0.000000 
146 1 -0.008967 0.004724 0.003478 0.000656 0.000000 -0.000588 0.000000 
147 1 0.013545 0.005272 -0.008652 0.000656 0.000000 -0.000588 0.000000 
148 1 -0.001381 0.008168 -0.015354 0.000656 0.000000 -0.000588 0.000000 
149 1 0.015545 0.011451 -0.001491 0.000656 0.000000 -0.000588 0.000000 
150 1 0.009904 0.012321 0.004794 0.000656 0.000000 -0.000588 0.000000 
151 1 -0.000517 -0.001708 0.013816 0.000656 0.000000 -0.000588 0.000000 
152 1 -0.009466 0.002623 -0.007577 0.000656 0.000000 -0.000588 0.000000 
153 1 -0.006305 -0.001776 0.003553 0.000656 0.000000 -0.000588 0.000000 
154 1 -0.001660 0.000060 0.008049 0.000656 0.000000 -0.000588 0.000000 
155 1 0.004409 0.008513 -0.006564 0.000656 0.000000 -0.000588 0.000000 
156 1 -0.009680 0.007023 0.012149 0.000656 0.000000 -0.000588 0.000000 
157 1 0.002379 0.012075 0.002556 0.000656 0.000000 -0.000588 0.000000 
158 1 -0.010166 0.013670 0.003790 0.000656 0.000000 -0.000588 0.000000 
159 1 -0.007799 0.006115 -0.003022 0.000656 0.000000 -0.000588 0.000000 
160 1 0.010118 0.004825 0.005435 0.000656 0.000000 -0.000588 0.000000 
161 1 -0.005756 0.005873 -0.003089 0.000656 0.000000 -0.000588 0.000000 
162 1 -0.010480 0.000025 -0.004490 0.000656 0.000000 -0.000588 0.000000 
163 1 -0.000040 0.011729 -0.015887 0.000656 0.000000 -0.000588 0.000000 
164 1 -0.002576 -0.001273 0.009396 0.000656 0.000000 -0.000588 0.000000 
165 1 -0.008552 -0.000704 0.000896 0.000656 0.000000 -0.000588 0.000000 
166 1 -0.006823 0.002190 0.006330 0.000656 0.000000 -0.000588 0.000000 
167 1 0.001257 0.012959 0.015756 0.000656 0.000000 -0.000588 0.000000 
168 1 0.013082 0.004176 0.002432 0.000656 0.000000 -0.000588 0.000000 
169 1 0.003393 0.008793 0.001276 0.000656 0.000000 -0.000588 0.000000 
170 1 -0.013312 0.013126 0.008722 0.000656 0.000000 -0.000588 0.000000 
171 1 -0.008916 0.012588 0.006628 0.000656 0.000000 -0.000588 0.000000 
172 1 -0.009596 0.007564 -0.011510 0.000656 0.000000 -0.000588 0.000000 
173 1 -0.004602 0.000858 0.007240 0.000656 0.000000 -0.000588 0.000000 
174 1 -0.009620 0.008299 -0.000625 0.000656 0.000000 -0.000588 0.000000 
175 1 0.002949 0.004278 -0.002673 0.000656 0.000000 -0.000588 0.000000 
176 1 0.002088 0.001701 -0.010328 0.000656 0.000000 -0.000588 0.000000 
177 1 0.011134 0.005177 0.009170 0.000656 0.000000 -0.000588 0.000000 
178 1 -0.008777 0.000497 0.005968 0.000656 0.000000 -0.000588 0.000000 
179 1 0.010507 0.005966 -0.005876 0.000656 0.000000 -0.000588 0.000000 
180 1 -0.013952 0.008927 -0.004350 0.000656 0.000000 -0.000588 0.000000 
181 1 -0.004822 0.013498 -0.012334 0.000656 0.000000 -0.000588 0.000000 
182 1 0.005039 0.012925 0.001323 0.000656 0.000000 -0.000588 0.000000 
183 1 -0.005368 0.008483 -0.004424 0.000656 0.000000 -0.000588 0.000000 
184 1 -0.009100 0.006022 -0.000874 0.000656 0.000000 -0.000588 0.000000 
185 1 0.012989 0.011441 -0.000454 0.000656 0.000000 -0.000588 0.000000 
186 1 -0.002641 0.012920 0.014923 0.000656 0.000000 -0.000588 0.000000 
187 1 -0.001093 0.011146 -0.011071 0.000656 0.000000 -0.000588 0.000000 
188 1 -0.004129 -0.000316 0.011049 0.000656 0.000000 -0.000588 0.000000 
189 1 0.001285 0.001800 -0.005993 0.000656 0.000000 -0.000588 0.000000 
190 1 0.014010 0.003049 0.005420 0.000656 0.000000 -0.000588 0.000000 
191 1 -0.001548 0.005931 0.012142 0.000656 0.000000 -0.000588 0.000000 
192 1 0.015028 0.009584 0.003102 0.000656 0.000000 -0.000588 0.000000 
193 1 -0.004726 0.010023 -0.014755 0.000656 0.000000 -0.000588 0.000000 
194 1 -0.012148 0.005407 0.002842 0.000656 0.000000 -0.000588 0.000000 
195 1 -0.002363 -0.000551 -0.015249 0.000656 0.000000 -0.000588 0.000000 
196 1 -0.000838 0.012557 -0.002887 0.000656 0.000000 -0.000588 0.000000 
197 1 0.002333 0.011277 -0.003075 0.000656 0.000000 -0.000588 0.000000 
198 1 0.010346 0.010747 -0.007278 0.000656 0.000000 -0.000588 0.000000 
199 1 -0.000427 0.001478 0.009533 0.000656 0.000000 -0.000588 0.000000 
200 1 -0.001174 -0.001215 0.014938 0.000656 0.000000 -0.000588 0.000000 
201 1 0.001987 0.002735 0.012900 0.000656 0.000000 -0.000588 0.000000 
202 1 0.004561 0.001198 -0.003073 0.000656 0.000000 -0.000588 0.000000 
203 1 0.001847 0.013046 -0.008932 0.000656 0.000000 -0.000588 0.000000 
204 1 0.001915 0.000909 0.013865 0.000656 0.000000 -0.000588 0.000000 
205 1 0.006052 0.003823 0.000788 0.000656 0.000000 -0.000588 0.000000 
206 1 -0.015667 0.008391 0.000459 0.000656 0.000000 -0.000588 0.000000 
207 1 -0.004971 0.010718 0.009662 0.000656 0.000000 -0.000588 0.000000 
208 1 -0.013934 0.009879 -0.001633 0.000656 0.000000 -0.000588 0.000000 
209 1 0.005167 -0.000848 0.012408 0.000656 0.000000 -0.000588 0.000000 
210 1 0.010964 -0.001655 -0.009621 0.000656 0.000000 -0.000588 0.000000 
211 1 0.011617 0.010839 -0.009185 0.000656 0.000000 -0.000588 0.000000 
212 1 -0.010477 0.008635 -0.003238 0.000656 0.000000 -0.000588 0.000000 
213 1 0.002153 -0.001688 0.008999 0.000656 0.000000 -0.000588 0.000000 
214 1 0.002274 0.000668 0.004598 0.000656 0.000000 -0.000588 0.000000 
215 1 -0.012858 0.007599 0.007248 0.000656 0.000000 -0.000588 0.000000 
216 1 0.008643 0.004747 0.013416 0.000656 0.000000 -0.000588 0.000000 
217 1 -0.000560 0.010375 -0.001635 0.000656 0.000000 -0.000588 0.000000 
218 1 -0.004489 0.001151 0.011470 0.000656 0.000000 -0.000588 0.000000 
219 1 -0.004095 0.007067 -0.015268 0.000656 0.000000 -0.000588 0.000000 
220 1 -0.010269 0.000889 -0.003050 0.000656 0.000000 -0.000588 0.000000 
221 1 0.005231 0.002416 -0.015451 0.000656 0.000000 -0.000588 0.000000 
222 1 0.004348 0.007376 0.008793 0.000656 0.000000 -0.000588 0.000000 
223 1 -0.002017 0.006656 -0.001426 0.000656 0.000000 -0.000588 0.000000 
224 1 0.012254 0.001370 -0.005542 0.000656 0.000000 -0.000588 0.000000 
225 1 0.010143 0.010788 0.008987 0.000656 0.000000 -0.000588 0.000000 
226 1 -0.015098 0.005385 0.001671 0.000656 0.000000 -0.000588 0.000000 
227 1 -0.005080 0.011012 0.011920 0.000656 0.000000 -0.000588 0.000000 
228 1 0.004166 0.004070 0.012227 0.000656 0.000000 -0.000588 0.000000 
229 1 0.007487 0.008515 -0.009361 0.000656 0.000000 -0.000588 0.000000 
230 1 -0.007817 -0.002506 -0.006493 0.000656 0.000000 -0.000588 0.000000 
231 1 0.007599 0.010773 0.010410 0.000656 0.000000 -0.000588 0.000000 
232 1 -0.006658 0.002298 0.009750 0.000656 0.000000 -0.000588 0.000000 
233 1 0.001536 0.002710 0.009839 0.000656 0.000000 -0.000588 0.000000 
234 1 0.012668 0.000287 0.001285 0.000656 0.000000 -0.000588 0.000000 
235 1 0.008763 -0.000799 0.001263 0.000656 0.000000 -0.000588 0.000000 
236 1 0.006196 0.011855 -0.001690 0.000656 0.000000 -0.000588 0.000000 
237 1 -0.000606 0.001287 0.016235 0.000656 0.000000 -0.000588 0.000000 
238 1 -0.011062 0.007414 0.004848 0.000656 0.000000 -0.000588 0.000000 
239 1 -0.009059 0.011682 -0.006837 0.000656 0.000000 -0.000588 0.000000 
240 1 -0.011208 0.012276 -0.006710 0.000656 0.000000 -0.000588 0.000000 
241 1 -0.013853 0.001523 0.002815 0.000656 0.000000 -0.000588 0.000000 
242 1 -0.008597 0.010875 0.006680 0.000656 0.000000 -0.000588 0.000000 
243 1 -0.003359 0.008836 0.008470 0.000656 0.000000 -0.000588 0.000000 
244 1 -0.010660 0.003115 0.001480 0.000656 0.000000 -0.000588 0.000000 
245 1 0.004087 0.001687 0.013020 0.000656 0.000000 -0.000588 0.000000 
246 1 -0.003731 0.009753 -0.000836 0.000656 0.000000 -0.000588 0.000000 
247 1 -0.009481 0.012528 0.010692 0.000656 0.000000 -0.000588 0.000000 
248 1 -0.001296 0.006957 0.013605 0.000656 0.000000 -0.000588 0.000000 
249 1 0.006613 0.005995 -0.006638 0.000656 0.000000 -0.000588 0.000000 
250 1 0.005624 0.013555 -0.001042 0.000656 0.000000 -0.000588 0.000000 
251 1 -0.003779 -0.001700 0.005446 0.000656 0.000000 -0.000588 0.000000 
252 1 0.003467 -0.000362 -0.002849 0.000656 0.000000 -0.000588 0.000000 
253 1 -0.002248 0.004622 -0.013526 0.000656 0.000000 -0.000588 0.000000 
254 1 -0.000746 -0.001447 0.008707 0.000656 0.000000 -0.000588 0.000000 
255 1 0.006763 0.010374 -0.011703 0.000656 0.000000 -0.000588 0.000000 
256 1 -0.008501 0.005543 -0.011991 0.000656 0.000000 -0.000588 0.000000 
257 1 0.006082 0.007812 0.009305 0.000656 0.000000 -0.000588 0.000000 
258 1 0.000981 -0.000347 -0.007323 0.000656 0.000000 -0.000588 0.000000 
259 1 0.014830 0.001881 -0.006007 0.000656 0.000000 -0.000588 0.000000 
260 1 -0.008890 0.010705 -0.010395 0.000656 0.000000 -0.000588 0.000000 
261 1 0.014899 0.000926 -0.001571 0.000656 0.000000 -0.000588 0.000000 
262 1 -0.011925 -0.002296 0.011153 0.000656 0.000000 -0.000588 0.000000 
263 1 -0.011628 0.000859 0.006977 0.000656 0.000000 -0.000588 0.000000 
264 1 -0.001649 0.004293 0.000951 0.000656 0.000000 -0.000588 0.000000 
265 1 0.011070 0.007435 0.002346 0.000656 0.000000 -0.000588 0.000000 
266 1 0.008699 0.006105 0.002177 0.000656 0.000000 -0.000588 0.000000 
267 1 0.010460 0.009628 0.004306 0.000656 0.000000 -0.000588 0.000000 
268 1 0.006710 0.010505 -0.009109 0.000656 0.000000 -0.000588 0.000000 
269 1 0.004668 0.009436 0.001808 0.000656 0.000000 -0.000588 0.000000 
270 1 0.015744 0.010993 0.000544 0.000656 0.000000 -0.000588 0.000000 
271 1 0.008616 -0.001034 -0.013132 0.000656 0.000000 -0.000588 0.000000 
272 1 0.005290 0.012899 0.005772 0.000656 0.000000 -0.000588 0.000000 
273 1 -0.008238 0.005250 0.000958 0.000656 0.000000 -0.000588 0.000000 
274 1 -0.006851 0.003958 0.003756 0.000656 0.000000 -0.000588 0.000000 
275 1 -0.005604 0.012696 0.007894 0.000656 0.000000 -0.000588 0.000000 
276 1 0.003291 0.007427 -0.011251 0.000656 0.000000 -0.000588 0.000000 
277 1 0.013104 0.009267 -0.005662 0.000656 0.000000 -0.000588 0.000000 
278 1 0.013981 0.008337 0.003599 0.000656 0.000000 -0.000588 0.000000 
279 1 0.008738 0.010505 -0.008689 0.000656 0.000000 -0.000588 0.000000 
280 1 -0.002709 0.004252 0.003284 0.000656 0.000000 -0.000588 0.000000 
281 1 0.001105 -0.001014 0.013851 0.000656 0.000000 -0.000588 0.000000 
282 1 0.001823 0.006078 0.001676 0.000656 0.000000 -0.000588 0.000000 
283 1 0.004512 -0.002322 0.003103 0.000656 0.000000 -0.000588 0.000000 
284 1 -0.006038 -0.001563 -0.000420 0.000656 0.000000 -0.000588 0.000000 
285 1 -0.004200 0.005172 -0.002515 0.000656 0.000000 -0.000588 0.000000 
286 1 0.006968 0.012820 -0.002584 0.000656 0.000000 -0.000588 0.000000 
287 1 -0.008284 0.004475 -0.000601 0.000656 0.000000 -0.000588 0.000000 
288 1 0.005616 0.010855 0.000130 0.000656 0.000000 -0.000588 0.000000 
289 1 0.011378 0.003384 -0.004091 0.000656 0.000000 -0.000588 0.000000 
290 1 -0.009165 0.002175 0.005506 0.000656 0.000000 -0.000588 0.000000 
291 1 0.006301 0.011560 -0.003657 0.000656 0.000000 -0.000588 0.000000 
292 1 -0.000451 0.001208 -0.005587 0.000656 0.000000 -0.000588 0.000000 
293 1 0.004152 0.012733 -0.002111 0.000656 0.000000 -0.000588 0.000000 
294 1 0.013078 0.006827 -0.006010 0.000656 0.000000 -0.000588 0.000000 
295 1 -0.003689 0.013526 0.007908 0.000656 0.000000 -0.000588 0.000000 
296 1 0.007154 0.011948 -0.011605 0.000656 0.000000 -0.000588 0.000000 
297 1 -0.004711 0.004670 -0.001204 0.000656 0.000000 -0.000588 0.000000 
298 1 0.004916 -0.001908 -0.012021 0.000656 0.000000 -0.000588 0.000000 
299 1 0.001894 0.007069 -0.014501 0.000656 0.000000 -0.000588 0.000000 
300 1 -0.013601 -0.001711 0.007652 0.000656 0.000000 -0.000588 0.000000 
301 1 -0.002123 -0.000661 -0.005345 0.000656 0.000000 -0.000588 0.000000 
302 1 -0.011528 0.008734 0.005772 0.000656 0.000000 -0.000588 0.000000 
303 1 -0.008122 0.002692 0.009136 0.000656 0.000000 -0.000588 0.000000 
304 1 0.000985 0.009533 0.009960 0.000656 0.000000 -0.000588 0.000000 
305 1 -0.004815 0.000756 -0.001672 0.000656 0.000000 -0.000588 0.000000 
306 1 -0.010950 0.000138 0.005364 0.000656 0.000000 -0.000588 0.000000 
307 1 -0.010768 0.012999 -0.001356 0.000656 0.000000 -0.000588 0.000000 
308 1 -0.014159 0.012685 0.000757 0.000656 0.000000 -0.000588 0.000000 
309 1 0.008125 0.008068 0.007586 0.000656 0.000000 -0.000588 0.000000 
310 1 -0.003224 -0.001590 -0.011468 0.000656 0.000000 -0.000588 0.000000 
311 1 -0.014031 0.002846 0.001132 0.000656 0.000000 -0.000588 0.000000 
312 1 -0.008283 -0.002531 -0.009387 0.000656 0.000000 -0.000588 0.000000 
313 1 -0.008551 0.009463 0.011666 0.000656 0.000000 -0.000588 0.000000 
314 1 0.001963 -0.001826 -0.006650 0.000656 0.000000 -0.000588 0.000000 
315 1 -0.011713 0.001188 0.003605 0.000656 0.000000 -0.000588 0.000000 
316 1 -0.014974 -0.001664 0.006430 0.000656 0.000000 -0.000588 0.000000 
317 1 -0.008367 0.013560 -0.001332 0.000656 0.000000 -0.000588 0.000000 
318 1 0.005978 0.008136 -0.005467 0.000656 0.000000 -0.000588 0.000000 
319 1 0.010509 0.004799 0.012279 0.000656 0.000000 -0.000588 0.000000 
320 1 -0.001259 0.001328 0.010868 0.000656 0.000000 -0.000588 0.000000 
321 1 0.001393 0.001223 0.015913 0.000656 0.000000 -0.000588 0.000000 
322 1 -0.007026 0.003867 -0.007204 0.000656 0.000000 -0.000588 0.000000 
323 1 -0.002607 0.001950 0.006143 0.000656 0.000000 -0.000588 0.000000 
324 1 0.008421 0.004815 0.007885 0.000656 0.000000 -0.000588 0.000000 
325 1 -0.002169 0.012879 -0.008811 0.000656 0.000000 -0.000588 0.000000 
326 1 0.005578 0.010476 -0.012582 0.000656 0.000000 -0.000588 0.000000 
327 1 0.002105 0.000027 0.003274 0.000656 0.000000 -0.000588 0.000000 
328 1 -0.016230 0.005468 -0.001054 0.000656 0.000000 -0.000588 0.000000 
329 1 -0.015750 -0.001847 -0.001798 0.000656 0.000000 -0.000588 0.000000 
330 1 0.000808 0.007453 -0.012553 0.000656 0.000000 -0.000588 0.000000 
331 1 0.001138 0.007945 0.004143 0.000656 0.000000 -0.000588 0.000000 
332 1 -0.005131 0.004125 -0.013785 0.000656 0.000000 -0.000588 0.000000 
333 1 0.015545 -0.002500 0.000321 0.000656 0.000000 -0.000588 0.000000 
334 1 0.002780 0.011141 0.011247 0.000656 0.000000 -0.000588 0.000000 
335 1 0.000442 0.011746 0.015441 0.000656 0.000000 -0.000588 0.000000 
336 1 0.003024 0.001439 0.011070 0.000656 0.000000 -0.000588 0.000000 
337 1 -0.004822 0.010315 -0.013243 0.000656 0.000000 -0.000588 0.000000 
338 1 0.007536 0.011828 0.012924 0.000656 0.000000 -0.000588 0.000000 
339 1 -0.009869 -0.000193 0.000100 0.000656 0.000000 -0.000588 0.000000 
340 1 0.000297 0.008202 -0.009297 0.000656 0.000000 -0.000588 0.000000 
341 1 -0.006588 0.013566 0.014854 0.000656 0.000000 -0.000588 0.000000 
342 1 0.000396 0.005735 0.015040 0.000656 0.000000 -0.000588 0.000000 
343 1 -0.002054 -0.001134 0.002622 0.000656 0.000000 -0.000588 0.000000 
344 1 -0.000395 0.002763 -0.003225 0.000656 0.000000 -0.000588 0.000000 
345 1 0.004308 0.001304 0.014497 0.000656 0.000000 -0.000588 0.000000 
346 1 0.009834 0.000582 -0.007904 0.000656 0.000000 -0.000588 0.000000 
347 1 -0.007169 0.002336 -0.006335 0.000656 0.000000 -0.000588 0.000000 
348 1 0.006329 0.004523 0.014481 0.000656 0.000000 -0.000588 0.000000 
349 1 0.005153 -0.000315 0.001935 0.000656 0.000000 -0.000588 0.000000 
350 1 0.011070 0.000478 0.001417 0.000656 0.000000 -0.000588 0.000000 
351 1 0.000007 0.002877 0.007755 0.000656 0.000000 -0.000588 0.000000 
352 1 0.007309 0.004470 0.009055 0.000656 0.000000 -0.000588 0.000000 
353 1 0.001850 0.002978 0.000060 0.000656 0.000000 -0.000588 0.000000 
354 1 0.008285 0.005256 -0.005280 0.000656 0.000000 -0.000588 0.000000 
355 1 -0.001398 -0.000793 0.013340 0.000656 0.000000 -0.000588 0.000000 
356 1 0.001542 0.004752 0.015063 0.000656 0.000000 -0.000588 0.000000 
357 1 0.006427 0.002357 -0.012622 0.000656 0.000000 -0.000588 0.000000 
358 1 -0.005380 0.004086 0.005671 0.000656 0.000000 -0.000588 0.000000 
359 1 0.013183 0.002240 0.003329 0.000656 0.000000 -0.000588 0.000000 
360 1 0.003777 0.004479 -0.000013 0.000656 0.000000 -0.000588 0.000000 
361 1 0.008156 0.013010 0.007963 0.000656 0.000000 -0.000588 0.000000 
362 1 -0.013757 0.007365 -0.004479 0.000656 0.000000 -0.000588 0.000000 
363 1 0.009598 0.004469 0.003381 0.000656 0.000000 -0.000588 0.000000 
364 1 -0.014054 0.007562 0.002151 0.000656 0.000000 -0.000588 0.000000 
365 1 -0.008478 -0.000343 -0.003355 0.000656 0.000000 -0.000588 0.000000 
366 1 0.015137 0.005317 -0.003071 0.000656 0.000000 -0.000588 0.000000 
367 1 0.000742 0.000488 -0.001878 0.000656 0.000000 -0.000588 0.000000 
368 1 0.015888 0.005786 0.000551 0.000656 0.000000 -0.000588 0.000000 
369 1 -0.014055 -0.000856 -0.001068 0.000656 0.000000 -0.000588 0.000000 
370 1 -0.012175 0.008048 0.008400 0.000656 0.000000 -0.000588 0.000000 
371 1 0.007023 0.012196 0.003031 0.000656 0.000000 -0.000588 0.000000 
372 1 0.001823 0.007096 0.009964 0.000656 0.000000 -0.000588 0.000000 
373 1 -0.003713 0.001606 -0.007723 0.000656 0.000000 -0.000588 0.000000 
374 1 -0.008624 0.005915 0.012364 0.000656 0.000000 -0.000588 0.000000 
375 1 -0.004503 0.002978 -0.001156 0.000656 0.000000 -0.000588 0.000000 
376 1 0.007483 0.006045 0.012211 0.000656 0.000000 -0.000588 0.000000 
377 1 -0.001510 0.009135 0.007370 0.000656 0.000000 -0.000588 0.000000 
378 1 0.003220 0.006173 0.015997 0.000656 0.000000 -0.000588 0.000000 
379 1 0.011670 -0.001701 0.011332 0.000656 0.000000 -0.000588 0.000000 
380 1 0.008331 0.000391 0.009416 0.000656 0.000000 -0.000588 0.000000 
381 1 0.002008 0.007612 -0.011551 0.000656 0.000000 -0.000588 0.000000 
382 1 0.005902 0.009931 0.010505 0.000656 0.000000 -0.000588 0.000000 
383 1 -0.012802 -0.002615 0.003426 0.000656 0.000000 -0.000588 0.000000 
384 1 0.014022 0.001220 -0.007997 0.000656 0.000000 -0.000588 0.000000 
385 1 0.014171 0.010507 -0.003929 0.000656 0.000000 -0.000588 0.000000 
386 1 -0.007131 0.002555 -0.002281 0.000656 0.000000 -0.000588 0.000000 
387 1 0.001805 -0.002088 0.005921 0.000656 0.000000 -0.000588 0.000000 
388 1 -0.011752 0.002584 -0.009985 0.000656 0.000000 -0.000588 0.000000 
389 1 0.000762 -0.001427 0.012600 0.000656 0.000000 -0.000588 0.000000 
390 1 -0.009552 0.010932 0.002310 0.000656 0.000000 -0.000588 0.000000 
391 1 -0.013413 0.008452 0.005193 0.000656 0.000000 -0.000588 0.000000 
392 1 -0.009662 0.002014 -0.012148 0.000656 0.000000 -0.000588 0.000000 
393 1 -0.009529 0.004866 -0.005378 0.000656 0.000000 -0.000588 0.000000 
394 1 -0.012814 0.013456 0.000948 0.000656 0.000000 -0.000588 0.000000 
395 1 0.008239 0.000962 0.013209 0.000656 0.000000 -0.000588 0.000000 
396 1 -0.009739 0.010432 -0.012406 0.000656 0.000000 -0.000588 0.000000 
397 1 -0.008956 0.003672 -0.012273 0.000656 0.000000 -0.000588 0.000000 
398 1 -0.001443 0.011150 0.008902 0.000656 0.000000 -0.000588 0.000000 
399 1 -0.007237 0.009674 0.006761 0.000656 0.000000 -0.000588 0.000000 
400 1 0.005662 0.008564 0.012816 0.000656 0.000000 -0.000588 0.000000 
401 1 0.002229 0.007232 0.004615 0.000656 0.000000 -0.000588 0.000000 
402 1 -0.005799 -0.001759 -0.006982 0.000656 0.000000 -0.000588 0.000000 
403 1 0.001662 0.008311 0.012479 0.000656 0.000000 -0.000588 0.000000 
404 1 0.014815 -0.001856 0.006533 0.000656 0.000000 -0.000588 0.000000 
405 1 -0.005889 0.009399 -0.001968 0.000656 0.000000 -0.000588 0.000000 
406 1 -0.009613 0.007652 0.001570 0.000656 0.000000 -0.000588 0.000000 
407 1 -0.000221 -0.000232 -0.005381 0.000656 0.000000 -0.000588 0.000000 
408 1 0.008302 -0.000039 -0.010435 0.000656 0.000000 -0.000588 0.000000 
409 1 -0.015160 0.013469 -0.000376 0.000656 0.000000 -0.000588 0.000000 
410 1 -0.000471 0.000185 0.014286 0.000656 0.000000 -0.000588 0.000000 
411 1 -0.001866 0.002602 0.004116 0.000656 0.000000 -0.000588 0.000000 
412 1 -0.002663 0.003315 0.000661 0.000656 0.000000 -0.000588 0.000000 
413 1 -0.003465 0.010608 0.011128 0.000656 0.000000 -0.000588 0.000000 
414 1 0.015612 0.009252 -0.001019 0.000656 0.000000 -0.000588 0.000000 
415 1 -0.003869 0.006751 0.007525 0.000656 0.000000 -0.000588 0.000000 