ITEM: TIMESTEP
60000
ITEM: NUMBER OF ATOMS
2477
ITEM: BOX BOUNDS ff ff ff
-0.005905 0.167905
-0.000656 0.011154
-0.005905 0.167905
ITEM: ATOMS id type x y z radius vx vy vz density 
1756 1 0.004144 0.000505801 0.000832 0.000423 0 2.23961 0 2650 
2078 1 0.019324 0.000413748 0.000953 0.000116 0 2.23824 0 2650 
1188 1 0.020639 0.000332237 0.000927 0.000116 0 2.23849 0 2650 
65 1 0.027038 0.00024007 0.001133 0.000116 0 -7 0 2650 
820 1 0.110174 0.000825494 0.001096 0.000656 0 2.2398 0 2650 
2317 1 0.014297 0.00116329 0.001071 0.000423 0 2.23961 0 2650 
1551 1 0.0855747 0.0013272 0.000933205 0.000656 0.551287 1.97103 -0.133068 2650 
84 1 0.108185 0.00134541 0.001133 0.000656 0 2.23968 0 2650 
2391 1 0.018068 0.000528996 0.001955 4.2e-05 0 2.23757 0 2650 
2340 1 0.031543 0.000317906 0.001662 0.000116 0 2.23914 0 2650 
692 1 0.038362 0.000386889 0.001808 0.000116 0 2.23824 0 2650 
1974 1 0.073895 0.00065426 0.001874 0.000423 0 2.23965 0 2650 
886 1 0.0833861 0.000668991 0.00163202 0.000423 -0.821324 2.12897 0.317751 2650 
666 1 0.0841833 0.000718852 0.00123598 0.000423 -0.744671 2.02934 0.0764923 2650 
355 1 0.111145 0.000586427 0.001866 0.000423 0 2.23961 0 2650 
2142 1 0.126502 0.00064007 0.001576 0.000656 0 2.60226 0 2650 
2403 1 0.006528 0.00113961 0.001419 0.000423 0 2.23961 0 2650 
1432 1 0.016035 0.00116457 0.001465 0.000423 0 2.23961 0 2650 
213 1 0.044271 0.000973245 0.001469 0.000423 0 2.23963 0 2650 
1136 1 0.0940005 0.000945273 0.00163175 0.000423 0.000643196 2.23497 0.0606212 2650 
1066 1 0.011114 0.000103954 0.002419 0.000116 0 1.72859 0 2650 
1274 1 0.018553 0.000578112 0.002496 0.000423 0 2.23965 0 2650 
1776 1 0.021661 0.000782173 0.002691 0.000116 0 2.23849 0 2650 
240 1 0.0511231 0.000620395 0.00224271 0.000423 -1.06533 1.37752 -1.50895 2650 
2298 1 0.077914 0.000332237 0.002756 0.000116 0 2.23849 0 2650 
2049 1 0.084987 0.00014707 0.002439 0.000116 0 -7 0 2650 
1138 1 0.101697 0.000555072 0.002616 0.000423 0 2.23961 0 2650 
1422 1 0.104327 0.000842183 0.002201 0.000116 0 2.23815 0 2650 
652 1 0.10982 0.00091245 0.002424 0.000423 0 2.23961 0 2650 
985 1 0.116858 0.000679694 0.002415 0.000116 0 2.23917 0 2650 
94 1 0.127492 0.000721029 0.002577 0.000116 0 2.23825 0 2650 
1752 1 0.130965 0.000343675 0.002114 4.2e-05 0 2.23579 0 2650 
1664 1 0.158101 0.00025807 0.002099 0.000116 0 -7 0 2650 
658 1 0.150029 0.000115417 0.003124 0.000116 0 2.30003 0 2650 
1370 1 0.0433421 0.000308147 0.00322481 0.000116 5.56923 1.60978 -4.153 2650 
2089 1 0.055205 0.000220707 0.003367 4.2e-05 0 2.23579 0 2650 
2459 1 0.074324 0.000244596 0.003444 0.000116 0 2.23815 0 2650 
840 1 0.080646 0.000405743 0.003038 0.000116 0 2.23815 0 2650 
2174 1 0.086202 0.000759017 0.003033 0.000116 0 2.23914 0 2650 
254 1 0.0943 0.00068775 0.003434 0.000116 0 2.23815 0 2650 
1356 1 0.137504 0.000594671 0.00342034 0.000423 1.10504 1.29605 -1.48654 2650 
1524 1 0.0221344 0.00109624 0.00303532 0.000423 0.0794613 2.08506 -0.0358902 2650 
2182 1 0.0223872 0.000124653 0.00393008 4.2e-05 0.612096 1.88128 2.03166 2650 
585 1 0.143349 0.000145084 0.004178 4.2e-05 0 2.2374 0 2650 
361 1 0.001268 0.000246834 0.003827 0.000116 0 2.23815 0 2650 
365 1 0.014662 0.000783572 0.003871 0.000656 0 2.23971 0 2650 
1606 1 0.035843 0.000423256 0.003632 0.000423 0 2.23961 0 2650 
2047 1 0.0423054 0.000610398 0.00399786 0.000423 -0.109297 2.17458 0.0815035 2650 
300 1 0.0522621 0.000451685 0.0038559 0.000423 1.26543 0.145525 1.79239 2650 
1764 1 0.1048 0.000708645 0.003935 0.000423 0 2.23961 0 2650 
1208 1 0.0206427 0.00103465 0.00365428 0.000116 -3.89137 0.441907 1.61315 2650 
980 1 0.06939 0.00145292 0.003991 0.000656 0 2.23968 0 2650 
824 1 0.126159 0.00112133 0.003789 0.000423 0 2.23948 0 2650 
95 1 0.132573 0.0010078 0.00381922 0.000116 -4.06674 0.294724 -1.33682 2650 
648 1 0.133898 0.00101824 0.00425488 0.000423 0.0838685 2.08917 0.0275692 2650 
1932 1 0.141016 0.00133101 0.003702 0.000656 0 2.23969 0 2650 
1816 1 0.147786 0.000951483 0.003726 0.000423 0 2.23961 0 2650 
2050 1 0.0520551 0.00264353 0.00423103 0.000423 -5.51865 -1.1639 -1.19652 2650 
176 1 0.001438 0.00033907 0.00443 0.000116 0 -7 0 2650 
1679 1 0.042503 0.000209469 0.005076 0.000116 0 2.23917 0 2650 
424 1 0.061715 0.000393773 0.005053 0.000423 0 2.84237 0 2650 
188 1 0.064849 0.000500038 0.005091 0.000423 0 2.23951 0 2650 
1277 1 0.075006 0.00030107 0.005099 0.000116 0 -7 0 2650 
1635 1 0.088691 0.000464206 0.004515 0.000423 0 2.23951 0 2650 
2366 1 0.108993 0.000666093 0.004482 0.000423 0 2.23961 0 2650 
2258 1 0.115895 0.000811087 0.00444 0.000656 0 2.23969 0 2650 
573 1 0.117631 0.000569491 0.005072 4.2e-05 0 2.23579 0 2650 
1814 1 0.131875 0.00027107 0.004611 0.000116 0 -7 0 2650 
1123 1 0.134858 0.000894858 0.004516 0.000423 0 2.23963 0 2650 
916 1 0.136357 0.000480704 0.00496324 0.000423 -1.264 0.226579 1.70038 2650 
1883 1 0.158442 0.00071727 0.004964 0.000423 0 2.23951 0 2650 
892 1 0.022369 0.0011594 0.004922 0.000423 0 2.23948 0 2650 
345 1 0.146378 0.000985399 0.004988 0.000423 0 2.23961 0 2650 
2305 1 0.06562 0.000124526 0.00557803 0.000116 0 0.691679 2.83225 2650 
1061 1 0.022038 0.000926152 0.00572593 0.000423 0 1.83596 -1.59579 2650 
1446 1 0.033447 0.000355554 0.005416 0.000116 0 2.23824 0 2650 
1659 1 0.055425 0.00037807 0.005474 0.000116 0 -7 0 2650 
1806 1 0.067083 0.00111685 0.005229 0.000423 0 2.23948 0 2650 
1040 1 0.099414 0.00116965 0.005841 0.000423 0 2.23951 0 2650 
779 1 0.058479 0.00199609 0.00562382 0.000423 3.85388 4.10676 0.835576 2650 
104 1 0.020242 0.000489485 0.006244 0.000423 0 2.23963 0 2650 
831 1 0.025684 0.000933566 0.00637 0.000423 0 2.23961 0 2650 
1819 1 0.038335 0.00017407 0.006672 0.000116 0 -7 0 2650 
628 1 0.073589 0.000390568 0.006621 0.000423 0 2.75837 0 2650 
1627 1 0.076565 0.000278168 0.006259 0.000116 0 2.23815 0 2650 
218 1 0.080191 0.000375865 0.006156 0.000423 0 -0.770019 0 2650 
1963 1 0.083996 0.00015607 0.006477 4.2e-05 0 -7 0 2650 
1820 1 0.09489 0.000683516 0.006065 4.2e-05 0 2.23579 0 2650 
2111 1 0.136698 0.000647541 0.006144 0.000423 0 2.23965 0 2650 
1410 1 0.150839 0.000504653 0.006562 4.2e-05 0 2.23579 0 2650 
1852 1 0.154146 0.00038341 0.005953 0.000423 0 -3.18357 0 2650 
990 1 0.105593 0.00118405 0.0059964 0.000116 14.0617 -4.82552 -14.5256 2650 
960 1 0.00685 0.00033507 0.006958 0.000116 0 -7 0 2650 
1233 1 0.008632 0.000466446 0.007405 0.000423 0 2.23951 0 2650 
1909 1 0.018376 0.00081871 0.007196 0.000423 0 2.23963 0 2650 
2425 1 0.026329 0.000492086 0.006758 0.000116 0 2.23824 0 2650 
1531 1 0.029084 0.000799511 0.007413 0.000423 0 2.23961 0 2650 
1307 1 0.035736 0.000660596 0.006764 0.000116 0 2.23825 0 2650 
1810 1 0.043944 0.00021307 0.007253 0.000116 0 -7 0 2650 
575 1 0.113515 0.000481486 0.006827 0.000423 0 2.23961 0 2650 
2128 1 0.115633 0.000565039 0.006908 0.000116 0 2.23849 0 2650 
1387 1 0.140551 0.000420334 0.007306 0.000423 0 2.31961 0 2650 
2234 1 0.053132 0.00116042 0.007104 0.000423 0 2.23965 0 2650 
352 1 0.101488 0.000956048 0.00720976 0.000423 0.453302 1.57283 -1.58017 2650 
881 1 0.115539 0.00229514 0.00717351 0.000656 0.207126 -0.626163 -2.2878 2650 
554 1 0.003153 0.00055384 0.007568 4.2e-05 0 2.23579 0 2650 
917 1 0.028712 0.000573993 0.008079 0.000116 0 2.23849 0 2650 
18 1 0.083283 0.000546298 0.007617 0.000116 0 2.23914 0 2650 
200 1 0.1055 0.000488641 0.0082349 0.000423 0.247037 0.673181 -0.558684 2650 
2093 1 0.133208 0.000380195 0.007989 0.000423 0 -2.44672 0 2650 
1159 1 0.150815 0.000789595 0.007685 0.000423 0 2.23963 0 2650 
706 1 0.0610119 0.00133173 0.0079219 0.000423 0.265473 2.54909 -0.409458 2650 
1960 1 0.094905 0.00105163 0.008097 0.000423 0 2.23963 0 2650 
5 1 0.137396 0.000133337 0.008337 0.000116 0 2.23918 0 2650 
2264 1 0.159154 0.000141641 0.008714 0.000116 0 2.23815 0 2650 
2385 1 0.0282486 0.000738611 0.00846268 0.000423 -0.879729 2.50774 -2.04498 2650 
967 1 0.045216 0.000383912 0.009072 0.000423 0 2.36757 0 2650 
337 1 0.078317 0.000630436 0.00903 0.000656 0 2.78319 0 2650 
1946 1 0.09912 0.000301195 0.009084 4.2e-05 0 2.23579 0 2650 
508 1 0.101117 0.000771272 0.00850585 0.000656 -0.0949987 2.1825 0.331157 2650 
1173 1 0.152246 0.000264007 0.009042 4.2e-05 0 2.23441 0 2650 
2121 1 0.1556 0.000450309 0.008517 4.2e-05 0 2.23729 0 2650 
1517 1 0.004885 0.000986683 0.008365 0.000423 0 2.23963 0 2650 
366 1 0.039524 0.00117129 0.008361 0.000423 0 2.23961 0 2650 
552 1 0.105311 0.00126092 0.0086624 0.000423 -0.505712 0.411121 1.14369 2650 
1353 1 0.135932 0.00123643 0.00907603 0.000656 0.000357376 2.23698 0.000135862 2650 
157 1 0.135552 0.00212718 0.0089317 4.2e-05 -1.36172 3.32842 -0.51768 2650 
1194 1 0.138262 0.000141965 0.009231 0.000116 0 2.23849 0 2650 
2197 1 0.0288194 0.000473213 0.00978939 0.000423 1.37491 -3.16193 3.19607 2650 
165 1 0.041117 0.000249072 0.009537 0.000116 0 2.23815 0 2650 
2015 1 0.098067 0.000151251 0.009838 0.000116 0 2.23918 0 2650 
1881 1 0.119492 0.000935549 0.009255 0.000656 0 2.23968 0 2650 
1688 1 0.141376 0.000629639 0.009894 0.000656 0 2.79472 0 2650 
1412 1 0.145768 0.000517348 0.009397 0.000116 0 2.23825 0 2650 
404 1 0.117705 0.00115492 0.009716 0.000423 0 2.23948 0 2650 
1163 1 0.038505 0.000560863 0.010104 4.2e-05 0 2.23441 0 2650 
691 1 0.065911 0.00049108 0.010344 0.000423 0 2.23951 0 2650 
1455 1 0.069014 0.000658469 0.010395 0.000656 0 2.23979 0 2650 
59 1 0.080657 0.000700382 0.010435 0.000656 0 2.23968 0 2650 
177 1 0.102003 0.000644324 0.01063 0.000423 0 2.23948 0 2650 
1418 1 0.11782 0.000361337 0.010281 0.000116 0 2.23849 0 2650 
2145 1 0.122032 0.000547365 0.0102952 0.000423 -1.86021 0.787823 0.697926 2650 
784 1 0.123061 0.000384373 0.00990905 0.000423 1.31486 -0.911873 -0.49332 2650 
1335 1 0.129495 0.000638909 0.009967 0.000116 0 2.23849 0 2650 
212 1 0.148551 0.000382528 0.010262 0.000423 0 -2.9991 0 2650 
623 1 0.017229 0.000965855 0.010022 0.000423 0 2.23951 0 2650 
2294 1 0.067079 0.00110858 0.010632 0.000423 0 2.23961 0 2650 
866 1 0.150967 0.000943175 0.010212 0.000423 0 2.23965 0 2650 
2373 1 0.056707 6.86728e-05 0.011468 4.2e-05 0 2.23579 0 2650 
1424 1 0.018389 0.00091341 0.010884 0.000423 0 2.23961 0 2650 
859 1 0.020765 0.000743521 0.011218 0.000423 0 2.23961 0 2650 
2442 1 0.061003 0.000667607 0.011176 0.000116 0 2.23815 0 2650 
1984 1 0.0762841 0.000617113 0.010928 0.000116 -0.842314 2.13067 0 2650 
278 1 0.078922 0.000753072 0.011437 0.000116 0 2.23849 0 2650 
1548 1 0.098569 0.000254508 0.010796 0.000116 0 2.23815 0 2650 
1842 1 0.128813 0.000197595 0.011369 0.000116 0 2.23815 0 2650 
2046 1 0.131457 0.0007107 0.0108346 0.000116 -0.178249 1.93796 -0.108222 2650 
650 1 0.132101 0.000462624 0.0112257 4.2e-05 3.75537 -0.654127 2.28004 2650 
1717 1 0.139512 0.000193448 0.011002 4.2e-05 0 2.23418 0 2650 
1134 1 0.141049 0.000446909 0.010696 4.2e-05 0 2.23441 0 2650 
972 1 0.159836 0.00051156 0.011222 0.000423 0 2.23961 0 2650 
605 1 0.119613 0.000100993 0.0114497 0.000116 0 0.192166 -3.09663 2650 
460 1 0.003722 0.000772962 0.011587 0.000423 0 2.23965 0 2650 
1886 1 0.024919 0.00035807 0.01171 0.000116 0 -7 0 2650 
2390 1 0.033791 0.000182887 0.012191 0.000116 0 2.23815 0 2650 
219 1 0.04317 0.000393273 0.011985 0.000116 0 2.23815 0 2650 
1733 1 0.093161 0.00015007 0.012041 0.000116 0 -7 0 2650 
1236 1 0.093676 0.000783062 0.0115692 0.000423 -0.0535116 2.20749 0.000813506 2650 
1899 1 0.0945188 0.000226661 0.011684 0.000116 1.87708 1.92082 0.258428 2650 
2205 1 0.125225 0.00072934 0.012172 0.000116 0 2.23824 0 2650 
966 1 0.140948 0.000799368 0.011888 0.000116 0 2.23825 0 2650 
1112 1 0.151852 0.000661923 0.012176 4.2e-05 0 2.2374 0 2650 
1542 1 0.041337 0.00111274 0.011979 0.000423 0 2.23961 0 2650 
67 1 0.096194 0.00134928 0.011854 0.000656 0 2.23979 0 2650 
2067 1 0.141648 0.0011383 0.011964 0.000423 0 2.23951 0 2650 
1535 1 0.115081 0.00468177 0.0122331 0.000423 -0.281332 -3.15123 3.10744 2650 
197 1 0.001978 0.000152749 0.012413 4.2e-05 0 2.23729 0 2650 
2495 1 0.004327 0.000651376 0.013029 0.000423 0 2.23961 0 2650 
895 1 0.045265 0.000767573 0.012269 0.000656 0 2.23968 0 2650 
489 1 0.047522 0.000381302 0.012445 0.000423 0 -2.72251 0 2650 
597 1 0.052746 0.000857074 0.012275 0.000423 0 2.23948 0 2650 
1205 1 0.074386 0.00027007 0.012556 0.000116 0 -7 0 2650 
738 1 0.077063 0.000621623 0.012617 0.000423 0 2.23963 0 2650 
294 1 0.083181 0.000606252 0.012766 0.000423 0 2.23948 0 2650 
2175 1 0.099879 0.0002155 0.012522 0.000116 0 2.23815 0 2650 
794 1 0.101794 0.000629639 0.012964 0.000656 0 2.79472 0 2650 
723 1 0.135627 0.000728037 0.012992 0.000116 0 2.23815 0 2650 
1598 1 0.140638 0.00028007 0.012616 0.000116 0 -7 0 2650 
2040 1 0.0711653 0.00132846 0.0123404 0.000116 -0.83955 4.01824 -1.40681 2650 
1396 1 0.149437 0.00112907 0.012358 0.000423 0 2.23965 0 2650 
1719 1 0.032653 0.000473808 0.013588 0.000423 0 2.23963 0 2650 
265 1 0.051603 0.000195689 0.013845 0.000116 0 2.23849 0 2650 
459 1 0.065523 0.00019088 0.013362 0.000116 0 2.23815 0 2650 
954 1 0.0719269 0.000661276 0.0136165 0.000656 0.00469377 2.2299 0.00786524 2650 
2302 1 0.075182 0.000498122 0.013287 0.000423 0 2.23961 0 2650 
1241 1 0.080082 0.00029407 0.01365 0.000116 0 -7 0 2650 
2436 1 0.084941 0.000565611 0.013757 0.000116 0 2.23815 0 2650 
1385 1 0.09883 0.000268263 0.013076 0.000116 0 2.23824 0 2650 
1601 1 0.129629 0.00047065 0.013243 0.000116 0 2.23815 0 2650 
1348 1 0.132843 0.000105455 0.013729 0.000116 0 2.41967 0 2650 
1284 1 0.020685 0.00113674 0.013078 0.000423 0 2.23963 0 2650 
2243 1 0.046104 0.00145868 0.013449 0.000656 0 2.23969 0 2650 
2120 1 0.056455 0.00107914 0.013138 0.000423 0 2.23961 0 2650 
1833 1 0.115349 0.000962329 0.013093 0.000423 0 2.23948 0 2650 
1649 1 0.14757 0.00100012 0.013797 0.000423 0 2.23963 0 2650 
1801 1 0.010927 0.000729424 0.014115 0.000423 0 2.23948 0 2650 
27 1 0.030797 0.000282079 0.014592 0.000116 0 2.23914 0 2650 
48 1 0.035058 0.0002856 0.013916 0.000116 0 2.23917 0 2650 
610 1 0.039545 0.000847162 0.013854 0.000423 0 2.23951 0 2650 
152 1 0.048531 0.00031607 0.014359 0.000116 0 -7 0 2650 
1452 1 0.057611 0.00044603 0.014495 0.000116 0 2.23815 0 2650 
1135 1 0.075772 0.000612971 0.014316 0.000423 0 2.23948 0 2650 
1931 1 0.102655 0.00035507 0.014112 4.2e-05 0 -7 0 2650 
630 1 0.10425 0.000187686 0.014428 0.000116 0 2.23824 0 2650 
790 1 0.126922 0.00029507 0.01428 0.000116 0 -7 0 2650 
1458 1 0.142812 0.000635864 0.014111 0.000116 0 2.23914 0 2650 
1257 1 0.1497 0.000704719 0.014178 0.000116 0 2.23824 0 2650 
2097 1 0.157939 0.000223393 0.014523 4.2e-05 0 2.2374 0 2650 
412 1 0.055062 0.00112521 0.014355 0.000423 0 2.23961 0 2650 
396 1 0.094308 0.00325183 0.0140687 4.2e-05 3.06854 15.3779 17.2229 2650 
1998 1 0.04633 6.407e-05 0.01483 4.2e-05 0 -7 0 2650 
1308 1 0.051143 0.000144533 0.015138 0.000116 0 2.23918 0 2650 
1002 1 0.008661 0.00022307 0.015305 0.000116 0 -7 0 2650 
1790 1 0.014573 0.000781408 0.015413 0.000116 0 2.23914 0 2650 
724 1 0.051952 0.000219384 0.015061 0.000116 0 2.23914 0 2650 
1484 1 0.053459 0.00022307 0.015164 0.000116 0 -7 0 2650 
616 1 0.060796 0.000320693 0.014808 0.000116 0 2.23815 0 2650 
1160 1 0.068631 0.000455248 0.014917 0.000423 0 2.23951 0 2650 
2042 1 0.087817 0.000115077 0.015033 0.000116 0 -6.88561 0 2650 
1207 1 0.0966121 0.0008142 0.0152733 0.000656 -0.0548809 2.24356 0.0566914 2650 
2335 1 0.133151 0.000810388 0.01467 0.000423 0 2.23961 0 2650 
211 1 0.124407 0.00103211 0.0149 0.000423 0 2.23961 0 2650 
146 1 0.156933 0.00119344 0.015215 0.000656 0 2.23971 0 2650 
64 1 0.050143 0.000137165 0.015685 0.000116 0 2.23815 0 2650 
1673 1 0.014714 0.000809428 0.015963 0.000423 0 2.23961 0 2650 
711 1 0.0251898 0.000594168 0.016103 0.000423 -0.046851 2.25189 0.0392278 2650 
934 1 0.0258573 0.000471512 0.0155441 0.000423 0.0468657 2.22742 -0.0392401 2650 
314 1 0.09027 0.00067656 0.016032 0.000116 0 2.23815 0 2650 
2177 1 0.11132 0.000375893 0.015853 0.000423 0 0.731438 0 2650 
418 1 0.149012 0.000450769 0.015862 0.000423 0 2.23951 0 2650 
2091 1 0.104905 0.00132945 0.016209 0.000656 0 2.2398 0 2650 
783 1 0.124383 0.00114064 0.01615 0.000656 0 2.23969 0 2650 
1071 1 0.03269 0.00025107 0.016623 0.000116 0 -7 0 2650 
587 1 0.04028 0.000619278 0.016356 4.2e-05 0 2.23441 0 2650 
1602 1 0.042847 0.000697608 0.016354 0.000116 0 2.23917 0 2650 
57 1 0.057367 0.000379157 0.016604 0.000423 0 1.75016 0 2650 
2246 1 0.079128 0.00026107 0.016383 4.2e-05 0 -7 0 2650 
1809 1 0.084202 0.000816147 0.016295 0.000423 0 2.23961 0 2650 
1258 1 0.086891 0.00014207 0.016661 0.000423 0 -7 0 2650 
1440 1 0.051411 0.00129294 0.016331 0.000656 0 2.23969 0 2650 
1979 1 0.148755 0.000961721 0.016686 0.000423 0 2.23961 0 2650 
269 1 0.115081 0.000144204 0.017289 0.000116 0 2.23849 0 2650 
1439 1 0.160999 5.5258e-05 0.017183 4.2e-05 0 2.23579 0 2650 
413 1 0.0166562 0.000888652 0.0172219 0.000656 0.33165 1.88219 -0.708339 2650 
505 1 0.079356 0.000423342 0.017099 0.000116 0 2.23825 0 2650 
1739 1 0.08215 0.00016507 0.01734 4.2e-05 0 -7 0 2650 
2474 1 0.083353 0.000367385 0.017263 0.000116 0 2.23825 0 2650 
1537 1 0.088848 0.000785116 0.017169 0.000423 0 2.23963 0 2650 
290 1 0.090462 0.000203256 0.017451 4.2e-05 0 2.2374 0 2650 
1481 1 0.103565 0.000187258 0.0177695 0.000116 0.99532 2.16141 0.847621 2650 
1255 1 0.103339 0.000873598 0.0171859 0.000423 2.58608 1.74305 -0.77452 2650 
753 1 0.106579 0.000265082 0.017074 0.000116 0 2.23849 0 2650 
1589 1 0.13054 0.0002341 0.01743 0.000116 0 2.23917 0 2650 
897 1 0.133624 0.000736625 0.017326 0.000116 0 2.23914 0 2650 
582 1 0.146181 0.000524079 0.017182 0.000423 -1.37323 0.61928 -0.0583622 2650 
88 1 0.147534 0.000498989 0.0172394 0.000423 1.90158 -2.82495 0.0808171 2650 
198 1 0.073518 0.000992118 0.017315 0.000423 0 2.23961 0 2650 
2192 1 0.0315966 0.00271586 0.017205 0.000656 -6.87493 5.02947 -1.31107 2650 
922 1 0.101343 0.00274387 0.017377 0.000423 -0.158994 4.6559 -0.876244 2650 
943 1 0.039469 0.000843142 0.018546 0.000116 0 2.23815 0 2650 
2486 1 0.042163 0.000838543 0.018514 0.000423 0 2.23961 0 2650 
1304 1 0.082867 0.000840443 0.018006 0.000423 0 2.23951 0 2650 
1211 1 0.099148 0.000455353 0.018421 0.000116 0 2.23849 0 2650 
359 1 0.125342 0.000452439 0.018465 0.000116 0 2.23825 0 2650 
1140 1 0.138478 0.000554955 0.017921 0.000423 0.0665955 2.2499 0.235381 2650 
1887 1 0.063275 0.00100012 0.018064 0.000423 0 2.23963 0 2650 
600 1 0.0158502 0.000541344 0.0189435 0.000423 -1.33476 0.616903 2.85079 2650 
72 1 0.01798 0.000391366 0.019191 0.000116 0 2.23824 0 2650 
1129 1 0.030015 0.000710132 0.019214 0.000116 0 2.23815 0 2650 
1058 1 0.033484 0.000391035 0.018874 0.000116 0 2.23815 0 2650 
770 1 0.087399 0.000250031 0.018895 0.000116 0 2.23815 0 2650 
976 1 0.091588 0.000378577 0.019221 0.000116 0 2.23825 0 2650 
1782 1 0.109585 0.000846222 0.018854 0.000423 0 2.23961 0 2650 
217 1 0.11624 0.000265448 0.01924 0.000116 0 2.23917 0 2650 
103 1 0.134585 0.000840373 0.01865 0.000116 0 2.23849 0 2650 
1271 1 0.034605 0.00102632 0.019326 0.000423 0 2.23951 0 2650 
2290 1 0.058947 0.00134861 0.018645 0.000656 0 2.23969 0 2650 
1989 1 0.043078 0.0042714 0.0188854 0.000656 10.1656 1.11628 1.1651 2650 
1380 1 0.012312 0.000595055 0.019777 0.000423 0 2.23948 0 2650 
327 1 0.019879 0.000482766 0.020058 0.000423 0 2.23963 0 2650 
491 1 0.037832 0.000627022 0.020112 0.000116 0 2.23825 0 2650 
1228 1 0.053088 0.00062187 0.0201436 0.000116 -10.5319 4.07973 16.2441 2650 
2453 1 0.070332 0.000843154 0.019926 0.000116 0 2.23917 0 2650 
1941 1 0.102976 0.000164023 0.019466 0.000116 0 2.23815 0 2650 
255 1 0.111674 0.000738382 0.019727 0.000423 0 2.23948 0 2650 
635 1 0.124633 0.000846222 0.019499 0.000423 0 2.23961 0 2650 
1191 1 0.147173 0.000764959 0.019927 0.000423 0 2.23963 0 2650 
467 1 0.008277 0.000973245 0.020141 0.000423 0 2.23963 0 2650 
863 1 0.056957 0.00113579 0.019571 0.000423 0 2.23965 0 2650 
2139 1 0.0979467 0.00449152 0.0197507 0.000423 -3.3797 -1.7183 1.96296 2650 
2245 1 0.084222 0.000145492 0.020706 0.000116 0 2.23914 0 2650 
1493 1 0.014484 0.000375401 0.020771 0.000423 0 0.246096 0 2650 
2354 1 0.014959 0.00030107 0.020276 0.000116 0 -7 0 2650 
1217 1 0.018898 0.000378901 0.020259 0.000423 0 -2.08168 0 2650 
809 1 0.022569 0.000578932 0.020657 0.000116 0 2.23917 0 2650 
37 1 0.034376 0.000467466 0.020581 0.000116 0 2.23824 0 2650 
2085 1 0.051831 0.000815515 0.02068 0.000423 0 2.23965 0 2650 
2372 1 0.083067 0.000498322 0.020627 0.000116 0 2.23917 0 2650 
1849 1 0.097369 0.000900293 0.02094 0.000423 0 2.23961 0 2650 
2433 1 0.120631 0.000214905 0.020189 0.000116 0 2.23914 0 2650 
888 1 0.136044 0.000532676 0.020613 0.000423 0 2.23961 0 2650 
1861 1 0.14233 0.000394914 0.020248 0.000116 0 2.23849 0 2650 
501 1 0.149638 0.000487448 0.020687 4.2e-05 0 2.23441 0 2650 
231 1 0.151138 0.000617144 0.020606 0.000423 0 2.23963 0 2650 
1067 1 0.0166953 0.00131714 0.0208922 0.000423 -0.390084 2.45924 -0.821365 2650 
1065 1 0.027926 0.00107946 0.020581 0.000423 0 2.23961 0 2650 
2423 1 0.0360012 0.00104934 0.0203891 0.000423 -0.524783 -4.75206 2.48221 2650 
1643 1 0.072452 0.00108651 0.020494 0.000423 0 2.23965 0 2650 
2172 1 0.121251 0.000117342 0.021576 0.000116 0 2.23849 0 2650 
2451 1 0.048261 0.000467018 0.021077 4.2e-05 0 2.23441 0 2650 
15 1 0.048347 0.00080008 0.021217 0.000116 0 2.23849 0 2650 
746 1 0.081277 0.000390437 0.020981 0.000116 0 2.23849 0 2650 
429 1 0.08347 0.000478287 0.021246 0.000423 0 2.23963 0 2650 
1292 1 0.094998 0.000396276 0.021521 0.000116 0 2.23914 0 2650 
1669 1 0.13613 0.000430614 0.02153 0.000423 0 2.23951 0 2650 
2349 1 0.144223 0.000601144 0.021596 0.000423 0 2.23961 0 2650 
111 1 0.145579 0.00038307 0.021193 0.000116 0 -7 0 2650 
2094 1 0.153133 0.00116042 0.021671 0.000423 0 2.23965 0 2650 
581 1 0.149726 0.000600462 0.161331 0.000116 0 2.23815 0 2650 
2123 1 0.020135 0.000574269 0.022133 0.000423 0 2.23961 0 2650 
751 1 0.020676 0.00040163 0.022507 0.000116 0 2.23849 0 2650 
2210 1 0.034314 0.000399798 0.022213 0.000116 0 2.23917 0 2650 
2416 1 0.041036 0.000668333 0.021765 0.000423 0 2.23961 0 2650 
674 1 0.0429241 0.000725119 0.0219251 0.000656 -0.0171358 2.22615 -0.025253 2650 
1388 1 0.0435987 0.000532711 0.0224851 0.000116 4.28605 5.54285 0.61131 2650 
1243 1 0.061472 0.000743882 0.021782 4.2e-05 0 2.23579 0 2650 
414 1 0.066167 0.00031007 0.021955 0.000116 0 -7 0 2650 
2096 1 0.096139 0.000185357 0.022521 4.2e-05 0 2.2374 0 2650 
493 1 0.126871 0.000768779 0.022504 0.000423 0 2.23951 0 2650 
1994 1 0.142649 0.000893253 0.022027 0.000423 0 2.23961 0 2650 
1560 1 0.145212 0.000983489 0.022301 0.000423 0 2.23965 0 2650 
2270 1 0.000832 0.000540038 0.023295 0.000423 0 2.23965 0 2650 
249 1 0.022254 0.00034807 0.0233 0.000116 0 -7 0 2650 
993 1 0.028135 0.000289359 0.023309 0.000116 0 2.23815 0 2650 
1986 1 0.066282 0.000661412 0.022706 4.2e-05 0 2.23441 0 2650 
2314 1 0.076991 0.000842612 0.022691 0.000116 0 2.23849 0 2650 
1246 1 0.080504 0.000774747 0.023289 0.000116 0 2.23825 0 2650 
1504 1 0.095192 0.000533016 0.022785 0.000116 0 2.23825 0 2650 
1895 1 0.107656 0.000727734 0.023279 4.2e-05 0 2.23729 0 2650 
1118 1 0.119151 0.000614286 0.022741 0.000116 0 2.23849 0 2650 
1642 1 0.137147 0.000533319 0.023316 0.000423 0 2.23965 0 2650 
646 1 0.140105 0.000720803 0.023238 0.000423 0 2.23961 0 2650 
82 1 0.154961 0.000659043 0.023145 0.000423 0 2.23951 0 2650 
923 1 0.161252 0.0005046 0.023014 0.000116 0 2.23849 0 2650 
38 1 0.0175551 0.000942954 0.0227024 0.000423 0.390905 2.01984 0.823094 2650 
2223 1 0.0636957 0.001675 0.0232143 0.000423 -0.895355 -4.61929 -1.78423 2650 
446 1 0.101555 9.49075e-05 0.023987 4.2e-05 0 2.2376 0 2650 
400 1 0.131378 5.36531e-05 0.023773 4.2e-05 0 2.23441 0 2650 
2115 1 0.016765 0.000460751 0.02409 0.000116 0 2.23824 0 2650 
518 1 0.03397 0.000557494 0.023721 0.000116 0 2.23914 0 2650 
1937 1 0.043278 0.000612951 0.023552 0.000116 0 2.23824 0 2650 
1263 1 0.073086 0.000375623 0.023941 0.000423 0 0.529225 0 2650 
1456 1 0.076694 0.00081575 0.023974 0.000116 0 2.23849 0 2650 
879 1 0.116971 0.000731885 0.023556 4.2e-05 0 2.23418 0 2650 
1812 1 0.145705 0.000599227 0.02396 0.000423 0 2.23963 0 2650 
2381 1 0.054499 0.000117342 0.024569 0.000116 0 2.23849 0 2650 
2136 1 0.002327 0.00034107 0.024891 0.000116 0 -7 0 2650 
1583 1 0.023207 0.000443412 0.02431 0.000423 0 2.23961 0 2650 
339 1 0.035201 0.00059379 0.024381 0.000423 0 2.23965 0 2650 
958 1 0.054851 0.000310789 0.024231 0.000116 0 2.23824 0 2650 
1056 1 0.129981 0.000735582 0.024264 0.000656 0 2.23979 0 2650 
2269 1 0.138223 0.000859659 0.024436 0.000423 0 2.23961 0 2650 
828 1 0.159183 0.000320145 0.024535 0.000116 0 2.23914 0 2650 
617 1 0.041439 0.00100169 0.024608 0.000423 0 2.23951 0 2650 
47 1 0.085962 0.00118025 0.024809 0.000423 0 2.23961 0 2650 
544 1 0.096732 0.00128174 0.024122 0.000656 0 2.23969 0 2650 
1225 1 0.148005 0.00144396 0.024592 0.000656 0 2.23968 0 2650 
2356 1 0.082785 0.00013045 0.025415 0.000116 0 2.23815 0 2650 
331 1 0.008847 0.000812154 0.025112 0.000116 0 2.23824 0 2650 
1153 1 0.0250605 0.00080598 0.0252586 0.000116 -17.742 2.87747 -9.1319 2650 
2375 1 0.039706 0.000225143 0.024993 0.000116 0 2.23917 0 2650 
1935 1 0.054785 0.000830992 0.025329 0.000116 0 2.23815 0 2650 
1374 1 0.0633571 0.000590806 0.0253035 0.000423 -0.200178 2.24298 0.113202 2650 
1745 1 0.10678 0.000520194 0.025316 0.000423 0 2.23951 0 2650 
120 1 0.124076 0.000464206 0.025565 0.000423 0 2.23951 0 2650 
2009 1 0.136827 0.000669997 0.0252577 0.000656 0.00332919 2.2293 -0.0206489 2650 
2499 1 0.137558 0.000475956 0.025442 4.2e-05 0 2.23441 0 2650 
2056 1 0.156314 0.000368102 0.0255023 0.000116 0.298868 -3.43493 -4.37344 2650 
719 1 0.0647335 0.00103654 0.0250947 0.000656 0.244649 2.443 0.295326 2650 
437 1 0.068747 0.000988677 0.024959 0.000656 0 2.23979 0 2650 
1104 1 0.096386 0.000947004 0.025692 0.000423 0 2.23961 0 2650 
441 1 0.136668 0.000129912 0.0262449 0.000116 -0.601663 1.16007 3.73175 2650 
2409 1 0.045373 0.00018207 0.026375 0.000116 0 -7 0 2650 
2469 1 0.071532 0.00038607 0.025811 0.000116 0 -7 0 2650 
2283 1 0.075251 0.00056689 0.026091 0.000116 0 2.23815 0 2650 
930 1 0.077129 0.000644657 0.025773 0.000423 0 2.23961 0 2650 
1319 1 0.091555 0.000382279 0.0258 0.000423 0 2.20324 0 2650 
130 1 0.115638 0.000328695 0.026445 0.000116 0 2.23824 0 2650 
2126 1 0.133494 0.00031461 0.025818 4.2e-05 0 2.23579 0 2650 
1942 1 0.145658 0.000285545 0.025799 4.2e-05 0 2.23579 0 2650 
631 1 0.153063 0.000780932 0.025957 0.000423 0 2.23948 0 2650 
86 1 0.158832 0.00043658 0.026032 0.000116 0 2.23914 0 2650 
1025 1 0.086945 0.00111345 0.025794 0.000656 0 2.23969 0 2650 
2030 1 0.02889 0.000144838 0.02685 0.000116 0 2.23815 0 2650 
1490 1 0.010825 0.000833432 0.026744 0.000423 0 2.23965 0 2650 
2149 1 0.020829 0.000376123 0.02721 0.000116 0 2.23914 0 2650 
1777 1 0.057211 0.000758537 0.026905 0.000423 0 2.23948 0 2650 
817 1 0.075874 0.00026807 0.026873 0.000116 0 -7 0 2650 
1117 1 0.089455 0.000655855 0.026925 0.000423 0 2.23961 0 2650 
2262 1 0.110514 0.000799511 0.026869 0.000423 0 2.23961 0 2650 
2405 1 0.119159 0.000404263 0.0271022 0.000423 0 0.952037 -2.66965 2650 
977 1 0.13334 0.000744085 0.026793 4.2e-05 0 2.23441 0 2650 
428 1 0.156241 0.000848732 0.0265666 0.000423 -0.00616357 2.16611 0.0901936 2650 
70 1 0.049569 0.00107307 0.027006 0.000423 0 2.23965 0 2650 
1638 1 0.051593 0.00102834 0.026922 0.000656 0 2.23969 0 2650 
458 1 0.023778 0.000116062 0.02804 0.000116 0 2.23824 0 2650 
1482 1 0.157259 -0.00056493 0.027332 4.2e-05 0 -7 0 2650 
1722 1 0.015485 0.000448212 0.02792 0.000423 0 2.23965 0 2650 
1340 1 0.0460054 0.000694999 0.0274796 0.000656 -4.45895 1.81012 -3.1895 2650 
266 1 0.0812829 0.000653798 0.027512 0.000423 -2.25152 1.37507 0 2650 
1929 1 0.092846 0.000819512 0.027856 0.000116 0 2.23825 0 2650 
721 1 0.103 0.000643389 0.027494 0.000656 -1.86351 0.684834 -0.753616 2650 
571 1 0.123616 0.00051284 0.027453 0.000423 0 2.23961 0 2650 
1400 1 0.131684 0.000829246 0.027456 0.000423 0 2.23951 0 2650 
2107 1 0.138375 0.00069129 0.027461 0.000116 0 2.23824 0 2650 
1195 1 0.159417 0.000214443 0.027491 4.2e-05 0 2.2374 0 2650 
1086 1 0.110601 0.00111339 0.027997 0.000423 0 2.23965 0 2650 
1662 1 0.009982 0.000124695 0.028422 0.000116 0 2.23815 0 2650 
1076 1 0.006655 0.00020307 0.028645 4.2e-05 0 -7 0 2650 
567 1 0.012167 0.000673384 0.028577 0.000116 0 2.23824 0 2650 
1740 1 0.044597 0.000507419 0.028771 0.000116 0 2.23815 0 2650 
2359 1 0.065394 0.000699103 0.028807 0.000656 0 2.23969 0 2650 
2059 1 0.066155 0.00029607 0.028516 4.2e-05 0 -7 0 2650 
261 1 0.068779 0.000439572 0.028837 0.000423 0 2.23951 0 2650 
318 1 0.0778812 0.000432454 0.0285694 0.000423 -0.733171 1.98291 -0.904797 2650 
1320 1 0.088834 0.000219021 0.028395 0.000116 0 2.23824 0 2650 
882 1 0.08832 0.000329646 0.028089 0.000116 0 2.23815 0 2650 
1562 1 0.106581 0.00022658 0.028147 4.2e-05 0 2.23729 0 2650 
271 1 0.023654 0.000334475 0.02955 0.000116 0 2.23849 0 2650 
66 1 0.028179 0.000677614 0.028997 0.000423 0 2.23963 0 2650 
956 1 0.077236 0.000714085 0.029149 0.000423 0 2.23961 0 2650 
682 1 0.088745 0.00031507 0.029072 0.000116 0 -7 0 2650 
2494 1 0.112264 0.00037707 0.029261 0.000116 0 -7 0 2650 
1470 1 0.12141 0.000302648 0.029441 4.2e-05 0 2.23729 0 2650 
2058 1 0.131847 0.000615792 0.0290937 0.000423 0.116053 -0.993838 -2.27377 2650 
1622 1 0.148534 0.000516371 0.028927 0.000116 0 2.23815 0 2650 
431 1 0.152539 0.000709984 0.029046 0.000656 0 2.23979 0 2650 
1930 1 0.155149 0.000430056 0.029092 0.000116 0 2.23825 0 2650 
1915 1 0.030283 0.00144748 0.029516 0.000656 0 2.23969 0 2650 
1763 1 0.047656 0.00108523 0.029583 0.000423 0 2.23963 0 2650 
1177 1 0.0786483 0.00102836 0.0295161 0.000423 0.940171 1.44594 1.16025 2650 
2480 1 0.014403 0.000384833 0.029889 0.000423 0 -3.45954 0 2650 
944 1 0.0556079 0.000222308 0.0300569 0.000116 4.01799 1.62777 -3.43374 2650 
709 1 0.0731 0.000697483 0.030266 4.2e-05 0 2.23441 0 2650 
71 1 0.106422 0.000450131 0.030376 0.000423 0 2.23961 0 2650 
620 1 0.130104 0.000384348 0.029694 0.000423 0 -3.36752 0 2650 
832 1 0.131782 0.000791252 0.0303813 0.000423 -0.116053 -3.76666 2.27377 2650 