ITEM: TIMESTEP
80000
ITEM: NUMBER OF ATOMS
2469
ITEM: BOX BOUNDS ff ff ff
-0.005905 0.167905
-0.000656 0.011154
-0.005905 0.167905
ITEM: ATOMS id type x y z radius vx vy vz density 
2078 1 0.019324 0.000861396 0.000953 0.000116 0 2.23824 0 2650 
1188 1 0.020639 0.000779934 0.000927 0.000116 0 2.23849 0 2650 
65 1 0.027038 0.000503278 0.001133 0.000116 0 2.23824 0 2650 
1756 1 0.004144 0.000953723 0.000832 0.000423 0 2.23961 0 2650 
2317 1 0.014297 0.00161121 0.001071 0.000423 0 2.23961 0 2650 
1551 1 0.085685 0.0017214 0.000906592 0.000656 0.551287 1.97103 -0.133068 2650 
820 1 0.110174 0.00127345 0.001096 0.000656 0 2.2398 0 2650 
84 1 0.108185 0.00179335 0.001133 0.000656 0 2.23968 0 2650 
2340 1 0.031543 0.000765734 0.001662 0.000116 0 2.23914 0 2650 
692 1 0.038362 0.000834537 0.001808 0.000116 0 2.23824 0 2650 
240 1 0.0509101 0.000895898 0.00194092 0.000423 -1.06533 1.37752 -1.50895 2650 
2403 1 0.006528 0.00158753 0.001419 0.000423 0 2.23961 0 2650 
1432 1 0.016035 0.00161249 0.001465 0.000423 0 2.23961 0 2650 
2391 1 0.018068 0.000976511 0.001955 4.2e-05 0 2.23757 0 2650 
213 1 0.044271 0.00142117 0.001469 0.000423 0 2.23963 0 2650 
1974 1 0.073895 0.00110219 0.001874 0.000423 0 2.23965 0 2650 
886 1 0.0832219 0.00109478 0.00169557 0.000423 -0.821324 2.12897 0.317751 2650 
666 1 0.0840344 0.00112472 0.00125128 0.000423 -0.744671 2.02934 0.0764923 2650 
1136 1 0.0940006 0.00139227 0.00164388 0.000423 0.000643196 2.23497 0.0606212 2650 
355 1 0.111145 0.00103435 0.001866 0.000423 0 2.23961 0 2650 
2142 1 0.126502 0.00108913 0.001576 0.000656 0 2.23969 0 2650 
1066 1 0.011114 0.00055316 0.002419 0.000116 0 2.23825 0 2650 
1370 1 0.044456 0.000630102 0.00239421 0.000116 5.56923 1.60978 -4.153 2650 
2298 1 0.077914 0.000779934 0.002756 0.000116 0 2.23849 0 2650 
2049 1 0.084987 0.000533016 0.002439 0.000116 0 2.23825 0 2650 
1752 1 0.130965 0.000790834 0.002114 4.2e-05 0 2.23579 0 2650 
1664 1 0.158101 0.000497507 0.002099 0.000116 0 2.23815 0 2650 
1274 1 0.018553 0.00102604 0.002496 0.000423 0 2.23965 0 2650 
1776 1 0.021661 0.00122987 0.002691 0.000116 0 2.23849 0 2650 
1138 1 0.101697 0.00100299 0.002616 0.000423 0 2.23961 0 2650 
1422 1 0.104327 0.00128981 0.002201 0.000116 0 2.23815 0 2650 
652 1 0.10982 0.00136037 0.002424 0.000423 0 2.23961 0 2650 
985 1 0.116858 0.00112753 0.002415 0.000116 0 2.23917 0 2650 
94 1 0.127492 0.00116868 0.002577 0.000116 0 2.23825 0 2650 
2089 1 0.055205 0.000667865 0.003367 4.2e-05 0 2.23579 0 2650 
2459 1 0.074324 0.000692227 0.003444 0.000116 0 2.23815 0 2650 
840 1 0.080646 0.000853374 0.003038 0.000116 0 2.23815 0 2650 
990 1 0.108405 0.000218943 0.00309129 0.000116 14.0617 -4.82552 -14.5256 2650 
1356 1 0.137725 0.000854039 0.00312303 0.000423 1.10502 1.29652 -1.48652 2650 
658 1 0.150029 0.000563261 0.003124 0.000116 0 2.23918 0 2650 
1524 1 0.0221503 0.00151326 0.00302814 0.000423 0.0794613 2.08506 -0.0358902 2650 
2174 1 0.086202 0.00120684 0.003033 0.000116 0 2.23914 0 2650 
254 1 0.0943 0.00113538 0.003434 0.000116 0 2.23815 0 2650 
95 1 0.131759 0.00106675 0.00355185 0.000116 -4.06674 0.294724 -1.33682 2650 
892 1 0.0231042 0.00186852 0.00311989 0.000423 1.65876 2.8282 -4.06807 2650 
361 1 0.001268 0.000694465 0.003827 0.000116 0 2.23815 0 2650 
2182 1 0.0225096 0.000500909 0.00433641 4.2e-05 0.612096 1.88128 2.03166 2650 
1606 1 0.035843 0.000871179 0.003632 0.000423 0 2.23961 0 2650 
300 1 0.0525151 0.00048079 0.00421438 0.000423 1.26543 0.145525 1.79239 2650 
585 1 0.143349 0.000592563 0.004178 4.2e-05 0 2.2374 0 2650 
365 1 0.014662 0.00123151 0.003871 0.000656 0 2.23971 0 2650 
1208 1 0.0198644 0.00112303 0.00397691 0.000116 -3.89137 0.441907 1.61315 2650 
1061 1 0.0213028 0.000994399 0.00355355 0.000423 -1.65876 1.23655 -4.7572 2650 
2047 1 0.0422836 0.00104531 0.00401416 0.000423 -0.109297 2.17458 0.0815035 2650 
1764 1 0.1048 0.00115657 0.003935 0.000423 0 2.23961 0 2650 
824 1 0.126159 0.00156923 0.003789 0.000423 0 2.23948 0 2650 
648 1 0.133915 0.00143607 0.0042604 0.000423 0.0838685 2.08917 0.0275692 2650 
1816 1 0.147786 0.00139941 0.003726 0.000423 0 2.23961 0 2650 
2050 1 0.0509513 0.00241075 0.00399172 0.000423 -5.51865 -1.1639 -1.19652 2650 
980 1 0.06939 0.00190085 0.003991 0.000656 0 2.23968 0 2650 
1932 1 0.141016 0.00177895 0.003702 0.000656 0 2.23969 0 2650 
176 1 0.001438 0.000471608 0.00443 0.000116 0 2.23815 0 2650 
1679 1 0.042503 0.000657303 0.005076 0.000116 0 2.23917 0 2650 
424 1 0.061715 0.000846222 0.005053 0.000423 0 2.23961 0 2650 
1277 1 0.075006 0.000483774 0.005099 0.000116 0 2.23825 0 2650 
1635 1 0.088691 0.000912107 0.004515 0.000423 0 2.23951 0 2650 
1814 1 0.131875 0.000493408 0.004611 0.000116 0 2.23849 0 2650 
188 1 0.064849 0.000947939 0.005091 0.000423 0 2.23951 0 2650 
2366 1 0.108993 0.00111401 0.004482 0.000423 0 2.23961 0 2650 
2258 1 0.115895 0.00125902 0.00444 0.000656 0 2.23969 0 2650 
573 1 0.117631 0.00101665 0.005072 4.2e-05 0 2.23579 0 2650 
1123 1 0.134858 0.00134278 0.004516 0.000423 0 2.23963 0 2650 
345 1 0.146378 0.00143332 0.004988 0.000423 0 2.23961 0 2650 
1883 1 0.158442 0.00116517 0.004964 0.000423 0 2.23951 0 2650 
1446 1 0.033447 0.000803202 0.005416 0.000116 0 2.23824 0 2650 
1659 1 0.055425 0.000459154 0.005474 0.000116 0 2.23825 0 2650 
916 1 0.136104 0.000526019 0.00530332 0.000423 -1.264 0.226579 1.70038 2650 
1806 1 0.067083 0.00156475 0.005229 0.000423 0 2.23948 0 2650 
1040 1 0.099414 0.00161755 0.005841 0.000423 0 2.23951 0 2650 
779 1 0.0592497 0.00281744 0.00579093 0.000423 3.85388 4.10676 0.835576 2650 
104 1 0.020242 0.000937411 0.006244 0.000423 0 2.23963 0 2650 
1819 1 0.038335 0.000524365 0.006672 0.000116 0 2.23815 0 2650 
2305 1 0.0655797 0.000875531 0.00629913 0.000116 -0.178341 6.33442 0.435709 2650 
628 1 0.073589 0.000843637 0.006621 0.000423 0 2.23948 0 2650 
1627 1 0.076565 0.000725799 0.006259 0.000116 0 2.23815 0 2650 
218 1 0.080191 0.000820626 0.006156 0.000423 0 2.23961 0 2650 
1963 1 0.083996 0.000444994 0.006477 4.2e-05 0 2.23441 0 2650 
1852 1 0.154146 0.000811992 0.005953 0.000423 0 2.23963 0 2650 
831 1 0.025684 0.00138149 0.00637 0.000423 0 2.23961 0 2650 
1820 1 0.09489 0.00113067 0.006065 4.2e-05 0 2.23579 0 2650 
2111 1 0.136698 0.00109547 0.006144 0.000423 0 2.23965 0 2650 
1410 1 0.150839 0.000951811 0.006562 4.2e-05 0 2.23579 0 2650 
960 1 0.00685 0.000472888 0.006958 0.000116 0 2.23815 0 2650 
1233 1 0.008632 0.000914347 0.007405 0.000423 0 2.23951 0 2650 
1810 1 0.043944 0.000511895 0.007253 0.000116 0 2.23815 0 2650 
575 1 0.113515 0.000929408 0.006827 0.000423 0 2.23961 0 2650 
1387 1 0.140551 0.000868271 0.007306 0.000423 0 2.23948 0 2650 
1909 1 0.018376 0.00126664 0.007196 0.000423 0 2.23963 0 2650 
2425 1 0.026329 0.000939734 0.006758 0.000116 0 2.23824 0 2650 
1531 1 0.029084 0.00124743 0.007413 0.000423 0 2.23961 0 2650 
1307 1 0.035736 0.00110825 0.006764 0.000116 0 2.23825 0 2650 
2234 1 0.053132 0.00160835 0.007104 0.000423 0 2.23965 0 2650 
352 1 0.101579 0.00127061 0.00689373 0.000423 0.453302 1.57283 -1.58017 2650 
2128 1 0.115633 0.00101274 0.006908 0.000116 0 2.23849 0 2650 
881 1 0.11558 0.00216991 0.00671595 0.000656 0.207126 -0.626163 -2.2878 2650 
200 1 0.105549 0.000623278 0.00812316 0.000423 0.247037 0.673181 -0.558684 2650 
2093 1 0.133208 0.000814524 0.007989 0.000423 0 2.23948 0 2650 
554 1 0.003153 0.001001 0.007568 4.2e-05 0 2.23579 0 2650 
917 1 0.028712 0.00102169 0.008079 0.000116 0 2.23849 0 2650 
2385 1 0.0280727 0.00124016 0.00805368 0.000423 -0.879729 2.50774 -2.04498 2650 
18 1 0.083283 0.000994126 0.007617 0.000116 0 2.23914 0 2650 
1960 1 0.094905 0.00149956 0.008097 0.000423 0 2.23963 0 2650 
1159 1 0.150815 0.00123752 0.007685 0.000423 0 2.23963 0 2650 
706 1 0.061065 0.00184155 0.00784001 0.000423 0.265473 2.54909 -0.409458 2650 
967 1 0.045216 0.000837912 0.009072 0.000423 0 2.23965 0 2650 
1946 1 0.09912 0.000748354 0.009084 4.2e-05 0 2.23579 0 2650 
5 1 0.137396 0.000581174 0.008337 0.000116 0 2.23918 0 2650 
1173 1 0.152246 0.000710889 0.009042 4.2e-05 0 2.23441 0 2650 
2121 1 0.1556 0.000897768 0.008517 4.2e-05 0 2.23729 0 2650 
2264 1 0.159154 0.000589272 0.008714 0.000116 0 2.23815 0 2650 
1517 1 0.004885 0.00143461 0.008365 0.000423 0 2.23963 0 2650 
366 1 0.039524 0.00161921 0.008361 0.000423 0 2.23961 0 2650 
337 1 0.078317 0.00108113 0.00903 0.000656 0 2.23968 0 2650 
508 1 0.101098 0.00120777 0.00857208 0.000656 -0.0949987 2.1825 0.331157 2650 
552 1 0.10521 0.00134315 0.00889113 0.000423 -0.505712 0.411121 1.14369 2650 
1353 1 0.135932 0.00168383 0.00907605 0.000656 0.000357376 2.23698 0.000135862 2650 
157 1 0.13528 0.00279286 0.00882816 4.2e-05 -1.36172 3.32842 -0.51768 2650 
165 1 0.041117 0.000696703 0.009537 0.000116 0 2.23815 0 2650 
2015 1 0.098067 0.000599088 0.009838 0.000116 0 2.23918 0 2650 
784 1 0.123351 0.000735088 0.00980038 0.000423 1.45671 1.77523 -0.546539 2650 
1194 1 0.138262 0.000589663 0.009231 0.000116 0 2.23849 0 2650 
404 1 0.117705 0.00160282 0.009716 0.000423 0 2.23948 0 2650 
1881 1 0.119492 0.00138349 0.009255 0.000656 0 2.23968 0 2650 
1688 1 0.141376 0.00108051 0.009894 0.000656 0 2.23979 0 2650 
1412 1 0.145768 0.000964998 0.009397 0.000116 0 2.23825 0 2650 
2197 1 0.0290374 0.000569264 0.0102961 0.000423 1.04788 1.01169 2.43586 2650 
691 1 0.065911 0.000938981 0.010344 0.000423 0 2.23951 0 2650 
1418 1 0.11782 0.000809034 0.010281 0.000116 0 2.23849 0 2650 
2145 1 0.12166 0.000704929 0.0104348 0.000423 -1.86021 0.787823 0.697926 2650 
212 1 0.148551 0.000812627 0.010262 0.000423 0 2.23961 0 2650 
623 1 0.017229 0.00141376 0.010022 0.000423 0 2.23951 0 2650 
1163 1 0.038505 0.00100774 0.010104 4.2e-05 0 2.23441 0 2650 
2294 1 0.067079 0.0015565 0.010632 0.000423 0 2.23961 0 2650 
1455 1 0.069014 0.00110643 0.010395 0.000656 0 2.23979 0 2650 
59 1 0.080657 0.00114832 0.010435 0.000656 0 2.23968 0 2650 
177 1 0.102003 0.00109222 0.01063 0.000423 0 2.23948 0 2650 
1335 1 0.129495 0.00108661 0.009967 0.000116 0 2.23849 0 2650 
866 1 0.150967 0.00139111 0.010212 0.000423 0 2.23965 0 2650 
2373 1 0.056707 0.000515832 0.011468 4.2e-05 0 2.23579 0 2650 
1984 1 0.0725525 0.000935596 0.010928 0.000116 -8.90985 1.90985 0 2650 
1548 1 0.098569 0.000702138 0.010796 0.000116 0 2.23815 0 2650 
1842 1 0.128813 0.000645226 0.011369 0.000116 0 2.23815 0 2650 
1717 1 0.139512 0.000640284 0.011002 4.2e-05 0 2.23418 0 2650 
1134 1 0.141049 0.00089379 0.010696 4.2e-05 0 2.23441 0 2650 
1424 1 0.018389 0.00136133 0.010884 0.000423 0 2.23961 0 2650 
859 1 0.020765 0.00119144 0.011218 0.000423 0 2.23961 0 2650 
2442 1 0.061003 0.00111524 0.011176 0.000116 0 2.23815 0 2650 
278 1 0.078922 0.00120077 0.011437 0.000116 0 2.23849 0 2650 
605 1 0.119574 0.0010268 0.010855 0.000116 -0.187386 6.65539 -0.0421371 2650 
2046 1 0.131421 0.00109829 0.0108129 0.000116 -0.178249 1.93796 -0.108222 2650 
972 1 0.159836 0.000959482 0.011222 0.000423 0 2.23961 0 2650 
1886 1 0.024919 0.000465689 0.01171 0.000116 0 2.23914 0 2650 
2390 1 0.033791 0.000630517 0.012191 0.000116 0 2.23815 0 2650 
219 1 0.04317 0.000840904 0.011985 0.000116 0 2.23815 0 2650 
1733 1 0.093161 0.000532039 0.012041 0.000116 0 2.23815 0 2650 
1899 1 0.0948942 0.000610826 0.0117357 0.000116 1.87708 1.92082 0.258428 2650 
650 1 0.132852 0.000331799 0.0116817 4.2e-05 3.75537 -0.654127 2.28004 2650 
460 1 0.003722 0.00122089 0.011587 0.000423 0 2.23965 0 2650 
1542 1 0.041337 0.00156066 0.011979 0.000423 0 2.23961 0 2650 
1236 1 0.0936652 0.00122456 0.0115694 0.000423 -0.0535116 2.20749 0.000813506 2650 
2205 1 0.125225 0.00117699 0.012172 0.000116 0 2.23824 0 2650 
966 1 0.140948 0.00124702 0.011888 0.000116 0 2.23825 0 2650 
2067 1 0.141648 0.0015862 0.011964 0.000423 0 2.23951 0 2650 
1112 1 0.151852 0.0011094 0.012176 4.2e-05 0 2.2374 0 2650 
2040 1 0.0709974 0.0021321 0.012059 0.000116 -0.83955 4.01824 -1.40681 2650 
67 1 0.096194 0.00179724 0.011854 0.000656 0 2.23979 0 2650 
197 1 0.001978 0.000600208 0.012413 4.2e-05 0 2.23729 0 2650 
489 1 0.047522 0.000813569 0.012445 0.000423 0 2.23951 0 2650 
1205 1 0.074386 0.000493846 0.012556 0.000116 0 2.23918 0 2650 
2175 1 0.099879 0.000663131 0.012522 0.000116 0 2.23815 0 2650 
1598 1 0.140638 0.000490489 0.012616 0.000116 0 2.23825 0 2650 
2495 1 0.004327 0.0010993 0.013029 0.000423 0 2.23961 0 2650 
895 1 0.045265 0.00121551 0.012269 0.000656 0 2.23968 0 2650 
597 1 0.052746 0.00130497 0.012275 0.000423 0 2.23948 0 2650 
738 1 0.077063 0.00106955 0.012617 0.000423 0 2.23963 0 2650 
294 1 0.083181 0.00105415 0.012766 0.000423 0 2.23948 0 2650 
794 1 0.101794 0.00108051 0.012964 0.000656 0 2.23979 0 2650 
723 1 0.135627 0.00117567 0.012992 0.000116 0 2.23815 0 2650 
1396 1 0.149437 0.001577 0.012358 0.000423 0 2.23965 0 2650 
1535 1 0.115025 0.00405266 0.0128557 0.000423 -0.281499 -3.14964 3.10928 2650 
1719 1 0.032653 0.000921733 0.013588 0.000423 0 2.23963 0 2650 
265 1 0.051603 0.000643386 0.013845 0.000116 0 2.23849 0 2650 
459 1 0.065523 0.000638511 0.013362 0.000116 0 2.23815 0 2650 
1241 1 0.080082 0.000486013 0.01365 0.000116 0 2.23825 0 2650 
1385 1 0.09883 0.00071591 0.013076 0.000116 0 2.23824 0 2650 
1601 1 0.129629 0.00091828 0.013243 0.000116 0 2.23815 0 2650 
1348 1 0.132843 0.000554757 0.013729 0.000116 0 2.23824 0 2650 
1284 1 0.020685 0.00158466 0.013078 0.000423 0 2.23963 0 2650 
2120 1 0.056455 0.00152706 0.013138 0.000423 0 2.23961 0 2650 
954 1 0.0719278 0.00110726 0.0136181 0.000656 0.00469377 2.2299 0.00786524 2650 
2302 1 0.075182 0.000946044 0.013287 0.000423 0 2.23961 0 2650 
2436 1 0.084941 0.00101324 0.013757 0.000116 0 2.23815 0 2650 
1833 1 0.115349 0.00141022 0.013093 0.000423 0 2.23948 0 2650 
1649 1 0.14757 0.00144805 0.013797 0.000423 0 2.23963 0 2650 
2243 1 0.046104 0.00190661 0.013449 0.000656 0 2.23969 0 2650 
27 1 0.030797 0.000729908 0.014592 0.000116 0 2.23914 0 2650 
48 1 0.035058 0.000733434 0.013916 0.000116 0 2.23917 0 2650 
152 1 0.048531 0.000479124 0.014359 0.000116 0 2.23914 0 2650 
1452 1 0.057611 0.000893661 0.014495 0.000116 0 2.23815 0 2650 
1931 1 0.102655 0.000381684 0.014112 4.2e-05 0 2.23579 0 2650 
630 1 0.10425 0.000635334 0.014428 0.000116 0 2.23824 0 2650 
790 1 0.126922 0.000485841 0.01428 0.000116 0 2.23914 0 2650 
2097 1 0.157939 0.000670872 0.014523 4.2e-05 0 2.2374 0 2650 
1801 1 0.010927 0.00117732 0.014115 0.000423 0 2.23948 0 2650 
610 1 0.039545 0.00129506 0.013854 0.000423 0 2.23951 0 2650 
412 1 0.055062 0.00157313 0.014355 0.000423 0 2.23961 0 2650 
1135 1 0.075772 0.00106087 0.014316 0.000423 0 2.23948 0 2650 
1458 1 0.142812 0.00108369 0.014111 0.000116 0 2.23914 0 2650 
1257 1 0.1497 0.00115237 0.014178 0.000116 0 2.23824 0 2650 
1002 1 0.008661 0.000508698 0.015305 0.000116 0 2.23815 0 2650 
1998 1 0.04633 0.00047492 0.01483 4.2e-05 0 2.23729 0 2650 
1308 1 0.051143 0.00059237 0.015138 0.000116 0 2.23918 0 2650 
724 1 0.051952 0.000667212 0.015061 0.000116 0 2.23914 0 2650 
1484 1 0.053459 0.000508698 0.015164 0.000116 0 2.23815 0 2650 
616 1 0.060796 0.000768324 0.014808 0.000116 0 2.23815 0 2650 
1160 1 0.068631 0.000903149 0.014917 0.000423 0 2.23951 0 2650 
2042 1 0.087817 0.000543229 0.015033 0.000116 0 2.23815 0 2650 
1790 1 0.014573 0.00122924 0.015413 0.000116 0 2.23914 0 2650 
1207 1 0.0966011 0.00126291 0.0152847 0.000656 -0.0548809 2.24356 0.0566914 2650 
211 1 0.124407 0.00148003 0.0149 0.000423 0 2.23961 0 2650 
2335 1 0.133151 0.00125831 0.01467 0.000423 0 2.23961 0 2650 
146 1 0.156933 0.00164138 0.015215 0.000656 0 2.23971 0 2650 
934 1 0.0258667 0.000916996 0.0155363 0.000423 0.0468657 2.22742 -0.0392401 2650 
64 1 0.050143 0.000584795 0.015685 0.000116 0 2.23815 0 2650 
2177 1 0.11132 0.000827006 0.015853 0.000423 0 2.23951 0 2650 
418 1 0.149012 0.00089867 0.015862 0.000423 0 2.23951 0 2650 
1673 1 0.014714 0.00125735 0.015963 0.000423 0 2.23961 0 2650 
711 1 0.0251804 0.00104455 0.0161108 0.000423 -0.046851 2.25189 0.0392278 2650 
314 1 0.09027 0.00112419 0.016032 0.000116 0 2.23815 0 2650 
783 1 0.124383 0.00158858 0.01615 0.000656 0 2.23969 0 2650 
2091 1 0.104905 0.00177741 0.016209 0.000656 0 2.2398 0 2650 
57 1 0.057367 0.000832784 0.016604 0.000423 0 2.23961 0 2650 
2246 1 0.079128 0.000411478 0.016383 4.2e-05 0 2.23441 0 2650 
587 1 0.04028 0.00106616 0.016356 4.2e-05 0 2.23441 0 2650 
1602 1 0.042847 0.00114544 0.016354 0.000116 0 2.23917 0 2650 
1809 1 0.084202 0.00126407 0.016295 0.000423 0 2.23961 0 2650 
1979 1 0.148755 0.00140964 0.016686 0.000423 0 2.23961 0 2650 
1440 1 0.051411 0.00174088 0.016331 0.000656 0 2.23969 0 2650 
2192 1 0.0302217 0.00372176 0.0169428 0.000656 -6.87493 5.02947 -1.31107 2650 
505 1 0.079356 0.000870992 0.017099 0.000116 0 2.23825 0 2650 
1739 1 0.08215 0.000442658 0.01734 4.2e-05 0 2.2374 0 2650 
2474 1 0.083353 0.000815035 0.017263 0.000116 0 2.23825 0 2650 
290 1 0.090462 0.000650736 0.017451 4.2e-05 0 2.2374 0 2650 
753 1 0.106579 0.000712779 0.017074 0.000116 0 2.23849 0 2650 
269 1 0.115081 0.000591901 0.017289 0.000116 0 2.23849 0 2650 
1589 1 0.13054 0.000681933 0.01743 0.000116 0 2.23917 0 2650 
582 1 0.145907 0.000647934 0.0171703 0.000423 -1.37323 0.61928 -0.0583622 2650 
88 1 0.147862 0.000542897 0.0172534 0.000423 1.60152 0.903831 0.0680646 2650 
1439 1 0.160999 0.000502417 0.017183 4.2e-05 0 2.23579 0 2650 
413 1 0.0167226 0.00126509 0.0170802 0.000656 0.33165 1.88219 -0.708339 2650 
198 1 0.073518 0.00144004 0.017315 0.000423 0 2.23961 0 2650 
1537 1 0.088848 0.00123304 0.017169 0.000423 0 2.23963 0 2650 
1255 1 0.103856 0.00122244 0.017031 0.000423 2.58578 1.74351 -0.774355 2650 
897 1 0.133624 0.00118445 0.017326 0.000116 0 2.23914 0 2650 
922 1 0.101311 0.00367884 0.0172017 0.000423 -0.158534 4.66164 -0.876317 2650 
396 1 0.0948886 0.00487274 0.0172231 4.2e-05 2.60542 -4.90709 13.1708 2650 
1211 1 0.099148 0.000903051 0.018421 0.000116 0 2.23849 0 2650 
1481 1 0.103762 0.000619918 0.0179378 0.000116 0.99118 2.16272 0.844179 2650 
359 1 0.125342 0.000900089 0.018465 0.000116 0 2.23825 0 2650 
943 1 0.039469 0.00129077 0.018546 0.000116 0 2.23815 0 2650 
2486 1 0.042163 0.00128646 0.018514 0.000423 0 2.23961 0 2650 
1887 1 0.063275 0.00144805 0.018064 0.000423 0 2.23963 0 2650 
1304 1 0.082867 0.00128834 0.018006 0.000423 0 2.23951 0 2650 
1140 1 0.138491 0.00100494 0.0179681 0.000423 0.0665955 2.2499 0.235381 2650 
72 1 0.01798 0.000839013 0.019191 0.000116 0 2.23824 0 2650 
1058 1 0.033484 0.000838665 0.018874 0.000116 0 2.23815 0 2650 
770 1 0.087399 0.000697662 0.018895 0.000116 0 2.23815 0 2650 
976 1 0.091588 0.000826227 0.019221 0.000116 0 2.23825 0 2650 
217 1 0.11624 0.000713282 0.01924 0.000116 0 2.23917 0 2650 
1129 1 0.030015 0.00115776 0.019214 0.000116 0 2.23815 0 2650 
1271 1 0.034605 0.00147422 0.019326 0.000423 0 2.23951 0 2650 
1782 1 0.109585 0.00129414 0.018854 0.000423 0 2.23961 0 2650 
103 1 0.134585 0.00128807 0.01865 0.000116 0 2.23849 0 2650 
2290 1 0.058947 0.00179655 0.018645 0.000656 0 2.23969 0 2650 
1989 1 0.0451111 0.00449466 0.0191185 0.000656 10.1656 1.11628 1.1651 2650 
600 1 0.0155832 0.000664725 0.0195137 0.000423 -1.33476 0.616903 2.85079 2650 
327 1 0.019879 0.000930692 0.020058 0.000423 0 2.23963 0 2650 
1941 1 0.102976 0.000611653 0.019466 0.000116 0 2.23815 0 2650 
467 1 0.008277 0.00142117 0.020141 0.000423 0 2.23963 0 2650 
1380 1 0.012312 0.00104295 0.019777 0.000423 0 2.23948 0 2650 
491 1 0.037832 0.00107467 0.020112 0.000116 0 2.23825 0 2650 
863 1 0.056957 0.00158372 0.019571 0.000423 0 2.23965 0 2650 
2453 1 0.070332 0.00129099 0.019926 0.000116 0 2.23917 0 2650 
255 1 0.111674 0.00118628 0.019727 0.000423 0 2.23948 0 2650 
635 1 0.124633 0.00129414 0.019499 0.000423 0 2.23961 0 2650 
1191 1 0.147173 0.00121289 0.019927 0.000423 0 2.23963 0 2650 
2139 1 0.0972708 0.00414786 0.0201432 0.000423 -3.3797 -1.7183 1.96296 2650 
1493 1 0.014484 0.000824767 0.020771 0.000423 0 2.23951 0 2650 
2354 1 0.014959 0.000483774 0.020276 0.000116 0 2.23825 0 2650 
1217 1 0.018898 0.000815809 0.020259 0.000423 0 2.23951 0 2650 
37 1 0.034376 0.000915113 0.020581 0.000116 0 2.23824 0 2650 
2423 1 0.0358736 0.000471264 0.0208569 0.000423 -0.856805 1.52038 2.07117 2650 
2245 1 0.084222 0.00059332 0.020706 0.000116 0 2.23914 0 2650 
2433 1 0.120631 0.000662733 0.020189 0.000116 0 2.23914 0 2650 
1861 1 0.14233 0.000842612 0.020248 0.000116 0 2.23849 0 2650 
501 1 0.149638 0.00093433 0.020687 4.2e-05 0 2.23441 0 2650 
809 1 0.022569 0.00102677 0.020657 0.000116 0 2.23917 0 2650 
1065 1 0.027926 0.00152739 0.020581 0.000423 0 2.23961 0 2650 
2085 1 0.051831 0.00126344 0.02068 0.000423 0 2.23965 0 2650 
1643 1 0.072452 0.00153444 0.020494 0.000423 0 2.23965 0 2650 
2372 1 0.083067 0.000946155 0.020627 0.000116 0 2.23917 0 2650 
1849 1 0.097369 0.00134822 0.02094 0.000423 0 2.23961 0 2650 
888 1 0.136044 0.000980598 0.020613 0.000423 0 2.23961 0 2650 
231 1 0.151138 0.00106507 0.020606 0.000423 0 2.23963 0 2650 
1067 1 0.0166173 0.00180899 0.0207279 0.000423 -0.390084 2.45924 -0.821365 2650 
2451 1 0.048261 0.0009139 0.021077 4.2e-05 0 2.23441 0 2650 
746 1 0.081277 0.000838135 0.020981 0.000116 0 2.23849 0 2650 
429 1 0.08347 0.000926213 0.021246 0.000423 0 2.23963 0 2650 
1292 1 0.094998 0.000844104 0.021521 0.000116 0 2.23914 0 2650 
2172 1 0.121251 0.000565039 0.021576 0.000116 0 2.23849 0 2650 
1669 1 0.13613 0.000878515 0.02153 0.000423 0 2.23951 0 2650 
111 1 0.145579 0.000457592 0.021193 0.000116 0 2.23849 0 2650 
15 1 0.048347 0.00124778 0.021217 0.000116 0 2.23849 0 2650 
2349 1 0.144223 0.00104907 0.021596 0.000423 0 2.23961 0 2650 
2094 1 0.153133 0.00160835 0.021671 0.000423 0 2.23965 0 2650 
751 1 0.020676 0.000849327 0.022507 0.000116 0 2.23849 0 2650 
2210 1 0.034314 0.000847632 0.022213 0.000116 0 2.23917 0 2650 
1388 1 0.0438201 0.000706759 0.022057 0.000116 -1.68314 5.83267 -1.26441 2650 
414 1 0.066167 0.000480895 0.021955 0.000116 0 2.23824 0 2650 
2096 1 0.096139 0.000632837 0.022521 4.2e-05 0 2.2374 0 2650 
2123 1 0.020135 0.00102219 0.022133 0.000423 0 2.23961 0 2650 
2416 1 0.041036 0.00111625 0.021765 0.000423 0 2.23961 0 2650 
674 1 0.0429198 0.00116931 0.0219188 0.000656 -0.0201855 2.22179 -0.0296859 2650 
1243 1 0.061472 0.00119104 0.021782 4.2e-05 0 2.23579 0 2650 
493 1 0.126871 0.00121668 0.022504 0.000423 0 2.23951 0 2650 
1994 1 0.142649 0.00134118 0.022027 0.000423 0 2.23961 0 2650 
1560 1 0.145212 0.00143142 0.022301 0.000423 0 2.23965 0 2650 
249 1 0.022254 0.000468784 0.0233 0.000116 0 2.23849 0 2650 
993 1 0.028135 0.00073699 0.023309 0.000116 0 2.23815 0 2650 
2223 1 0.0635167 0.000751144 0.0228574 0.000423 -0.895355 -4.61929 -1.78423 2650 
2270 1 0.000832 0.000987968 0.023295 0.000423 0 2.23965 0 2650 
38 1 0.0176332 0.00134692 0.0228671 0.000423 0.390905 2.01984 0.823094 2650 
1228 1 0.0509816 0.00143782 0.0233924 0.000116 -10.5319 4.07973 16.2441 2650 
1986 1 0.066282 0.00110829 0.022706 4.2e-05 0 2.23441 0 2650 
2314 1 0.076991 0.00129031 0.022691 0.000116 0 2.23849 0 2650 
1246 1 0.080504 0.0012224 0.023289 0.000116 0 2.23825 0 2650 
1504 1 0.095192 0.000980666 0.022785 0.000116 0 2.23825 0 2650 
1895 1 0.107656 0.00117519 0.023279 4.2e-05 0 2.23729 0 2650 
1118 1 0.119151 0.00106198 0.022741 0.000116 0 2.23849 0 2650 
1642 1 0.137147 0.000981249 0.023316 0.000423 0 2.23965 0 2650 
646 1 0.140105 0.00116873 0.023238 0.000423 0 2.23961 0 2650 
82 1 0.154961 0.00110694 0.023145 0.000423 0 2.23951 0 2650 
923 1 0.161252 0.000952297 0.023014 0.000116 0 2.23849 0 2650 
2115 1 0.016765 0.000908399 0.02409 0.000116 0 2.23824 0 2650 
1263 1 0.073086 0.000826065 0.023941 0.000423 0 2.23961 0 2650 
446 1 0.101555 0.000542427 0.023987 4.2e-05 0 2.2376 0 2650 
400 1 0.131378 0.000500534 0.023773 4.2e-05 0 2.23441 0 2650 
518 1 0.03397 0.00100532 0.023721 0.000116 0 2.23914 0 2650 
1937 1 0.043278 0.0010606 0.023552 0.000116 0 2.23824 0 2650 
1456 1 0.076694 0.00126345 0.023974 0.000116 0 2.23849 0 2650 
879 1 0.116971 0.00117872 0.023556 4.2e-05 0 2.23418 0 2650 
1812 1 0.145705 0.00104715 0.02396 0.000423 0 2.23963 0 2650 
1153 1 0.0223459 0.00239165 0.0238488 0.000116 -10.2965 11.8865 -5.41198 2650 
2136 1 0.002327 0.000471023 0.024891 0.000116 0 2.23849 0 2650 
1583 1 0.0231898 0.000870502 0.0243014 0.000423 -0.153549 2.05382 -0.0767161 2650 
2381 1 0.054499 0.000565039 0.024569 0.000116 0 2.23849 0 2650 
958 1 0.054851 0.000758437 0.024231 0.000116 0 2.23824 0 2650 
2056 1 0.156366 0.000243375 0.0247435 0.000116 0.234862 1.0986 -3.43682 2650 
828 1 0.159183 0.000767973 0.024535 0.000116 0 2.23914 0 2650 
339 1 0.035201 0.00104172 0.024381 0.000423 0 2.23965 0 2650 
617 1 0.041439 0.00144959 0.024608 0.000423 0 2.23951 0 2650 
47 1 0.085962 0.00162817 0.024809 0.000423 0 2.23961 0 2650 
1056 1 0.129981 0.00118354 0.024264 0.000656 0 2.23979 0 2650 
2269 1 0.138223 0.00130758 0.024436 0.000423 0 2.23961 0 2650 
544 1 0.096732 0.00172968 0.024122 0.000656 0 2.23969 0 2650 
1225 1 0.148005 0.00189189 0.024592 0.000656 0 2.23968 0 2650 
2375 1 0.039706 0.000672976 0.024993 0.000116 0 2.23917 0 2650 
2356 1 0.082785 0.000578081 0.025415 0.000116 0 2.23815 0 2650 
120 1 0.124076 0.000912107 0.025565 0.000423 0 2.23951 0 2650 
2499 1 0.137558 0.000922837 0.025442 4.2e-05 0 2.23441 0 2650 
331 1 0.008847 0.0012598 0.025112 0.000116 0 2.23824 0 2650 
1935 1 0.054785 0.00127862 0.025329 0.000116 0 2.23815 0 2650 
1374 1 0.0633171 0.0010394 0.0253262 0.000423 -0.200178 2.24298 0.113202 2650 
719 1 0.0647824 0.00152514 0.0251538 0.000656 0.244649 2.443 0.295326 2650 
437 1 0.068747 0.00143663 0.024959 0.000656 0 2.23979 0 2650 
1104 1 0.096386 0.00139493 0.025692 0.000423 0 2.23961 0 2650 
1745 1 0.10678 0.000968095 0.025316 0.000423 0 2.23951 0 2650 
2009 1 0.136828 0.00111586 0.0252535 0.000656 0.00332919 2.2293 -0.0206489 2650 
2409 1 0.0453764 0.000508012 0.0263616 0.000116 0.231174 1.28515 -0.928459 2650 
2469 1 0.071532 0.000456732 0.025811 0.000116 0 2.23914 0 2650 
1319 1 0.091555 0.000836303 0.0258 0.000423 0 2.23961 0 2650 
130 1 0.115638 0.000776343 0.026445 0.000116 0 2.23824 0 2650 
2126 1 0.133494 0.000761769 0.025818 4.2e-05 0 2.23579 0 2650 
1942 1 0.145658 0.000732704 0.025799 4.2e-05 0 2.23579 0 2650 
86 1 0.158832 0.000884408 0.026032 0.000116 0 2.23914 0 2650 
2283 1 0.075251 0.00101452 0.026091 0.000116 0 2.23815 0 2650 
930 1 0.077129 0.00109258 0.025773 0.000423 0 2.23961 0 2650 
1025 1 0.086945 0.00156138 0.025794 0.000656 0 2.23969 0 2650 
721 1 0.101193 0.00138931 0.0264327 0.000656 -6.18631 2.71423 -3.52791 2650 
631 1 0.153063 0.00122883 0.025957 0.000423 0 2.23948 0 2650 
2405 1 0.119159 0.00182644 0.0261512 0.000423 0 4.5976 -3.11156 2650 
2149 1 0.020829 0.000823952 0.02721 0.000116 0 2.23914 0 2650 
2030 1 0.02889 0.000592469 0.02685 0.000116 0 2.23815 0 2650 
817 1 0.075874 0.000494325 0.026873 0.000116 0 2.23824 0 2650 
441 1 0.136548 0.000361926 0.0269913 0.000116 -0.601663 1.16007 3.73175 2650 
1490 1 0.010825 0.00128136 0.026744 0.000423 0 2.23965 0 2650 
1340 1 0.0451136 0.0010571 0.0268417 0.000656 -4.46023 1.81539 -3.18436 2650 
70 1 0.049569 0.001521 0.027006 0.000423 0 2.23965 0 2650 
1638 1 0.051593 0.00147627 0.026922 0.000656 0 2.23969 0 2650 
1777 1 0.057211 0.00120643 0.026905 0.000423 0 2.23948 0 2650 
1117 1 0.089455 0.00110378 0.026925 0.000423 0 2.23961 0 2650 
2262 1 0.110514 0.00124743 0.026869 0.000423 0 2.23961 0 2650 
977 1 0.13334 0.00119097 0.026793 4.2e-05 0 2.23441 0 2650 
428 1 0.15624 0.00128195 0.0265847 0.000423 -0.00616357 2.16611 0.0901936 2650 
1722 1 0.015485 0.000896143 0.02792 0.000423 0 2.23965 0 2650 
458 1 0.023778 0.00056371 0.02804 0.000116 0 2.23824 0 2650 
1195 1 0.159417 0.000661923 0.027491 4.2e-05 0 2.2374 0 2650 
266 1 0.0782292 0.000942832 0.027512 0.000423 -8.49246 1.49246 0 2650 
1086 1 0.110601 0.00156132 0.027997 0.000423 0 2.23965 0 2650 
571 1 0.123616 0.000960763 0.027453 0.000423 0 2.23961 0 2650 
1400 1 0.131684 0.00127715 0.027456 0.000423 0 2.23951 0 2650 
2107 1 0.138375 0.00113894 0.027461 0.000116 0 2.23824 0 2650 
23 1 0.0939149 0.00257403 0.027449 0.000423 3.56835 5.37468 -0.113842 2650 
1076 1 0.006655 0.000430553 0.028645 4.2e-05 0 2.23763 0 2650 
1662 1 0.009982 0.000572325 0.028422 0.000116 0 2.23815 0 2650 
2059 1 0.066155 0.000400306 0.028516 4.2e-05 0 2.23441 0 2650 
261 1 0.068779 0.000887473 0.028837 0.000423 0 2.23951 0 2650 
318 1 0.0777345 0.000829509 0.0283884 0.000423 -0.733189 1.98562 -0.904818 2650 
1320 1 0.088834 0.000666669 0.028395 0.000116 0 2.23824 0 2650 
882 1 0.08832 0.000777277 0.028089 0.000116 0 2.23815 0 2650 
1562 1 0.106581 0.000674039 0.028147 4.2e-05 0 2.23729 0 2650 
2058 1 0.131871 0.000417673 0.0286393 0.000423 0.111603 -0.745271 -2.1866 2650 
567 1 0.012167 0.00112103 0.028577 0.000116 0 2.23824 0 2650 
1740 1 0.044597 0.000955049 0.028771 0.000116 0 2.23815 0 2650 
2359 1 0.065394 0.00114704 0.028807 0.000656 0 2.23969 0 2650 
1929 1 0.0937362 0.00124265 0.0285473 0.000116 2.16663 2.17873 1.68219 2650 
271 1 0.023654 0.000782173 0.02955 0.000116 0 2.23849 0 2650 
944 1 0.0564115 0.000547861 0.0293702 0.000116 4.01799 1.62777 -3.43374 2650 
682 1 0.088745 0.000479298 0.029072 0.000116 0 2.23825 0 2650 
2494 1 0.112264 0.000459459 0.029261 0.000116 0 2.23815 0 2650 
1470 1 0.12141 0.000750107 0.029441 4.2e-05 0 2.23729 0 2650 
1930 1 0.155149 0.000877706 0.029092 0.000116 0 2.23825 0 2650 
66 1 0.028179 0.00112554 0.028997 0.000423 0 2.23963 0 2650 
1763 1 0.047656 0.00153315 0.029583 0.000423 0 2.23963 0 2650 
956 1 0.077236 0.00116201 0.029149 0.000423 0 2.23961 0 2650 
1622 1 0.148534 0.000964002 0.028927 0.000116 0 2.23815 0 2650 
431 1 0.152539 0.00115794 0.029046 0.000656 0 2.23979 0 2650 
1915 1 0.030283 0.00189542 0.029516 0.000656 0 2.23969 0 2650 
2480 1 0.014403 0.000811036 0.029889 0.000423 0 2.23965 0 2650 
71 1 0.106422 0.000898054 0.030376 0.000423 0 2.23961 0 2650 
620 1 0.130104 0.00081133 0.029694 0.000423 0 2.23951 0 2650 
709 1 0.0731 0.00114436 0.030266 4.2e-05 0 2.23441 0 2650 
1177 1 0.0788363 0.00131755 0.0297481 0.000423 0.940171 1.44594 1.16025 2650 
1489 1 0.085601 0.00160097 0.029983 0.000423 0 2.23961 0 2650 