ITEM: TIMESTEP
115000
ITEM: NUMBER OF ATOMS
2468
ITEM: BOX BOUNDS ff ff ff
-0.005905 0.167905
-0.000656 0.011154
-0.005905 0.167905
ITEM: ATOMS id type x y z radius vx vy vz density 
990 1 0.112546 0.000631306 0.000657139 0.000116 9.43794 1.72365 4.34442 2650 
2078 1 0.019324 0.00164478 0.000953 0.000116 0 2.23824 0 2650 
1188 1 0.020639 0.0015634 0.000927 0.000116 0 2.23849 0 2650 
65 1 0.027038 0.00128666 0.001133 0.000116 0 2.23824 0 2650 
1370 1 0.0464052 0.00119353 0.000940659 0.000116 5.56923 1.60978 -4.153 2650 
1756 1 0.004144 0.00173759 0.000832 0.000423 0 2.23961 0 2650 
2317 1 0.014297 0.00239507 0.001071 0.000423 0 2.23961 0 2650 
1551 1 0.0858779 0.00241126 0.000860018 0.000656 0.551287 1.97103 -0.133068 2650 
820 1 0.110174 0.00205738 0.001096 0.000656 0 2.2398 0 2650 
84 1 0.108185 0.00257723 0.001133 0.000656 0 2.23968 0 2650 
1061 1 0.0207222 0.00142719 0.00188853 0.000423 -1.65876 1.23655 -4.7572 2650 
2340 1 0.031543 0.00154943 0.001662 0.000116 0 2.23914 0 2650 
692 1 0.038362 0.00161792 0.001808 0.000116 0 2.23824 0 2650 
240 1 0.0505372 0.00137803 0.00141278 0.000423 -1.06533 1.37752 -1.50895 2650 
2403 1 0.006528 0.0023714 0.001419 0.000423 0 2.23961 0 2650 
1432 1 0.016035 0.00239636 0.001465 0.000423 0 2.23961 0 2650 
2391 1 0.018068 0.00175966 0.001955 4.2e-05 0 2.23757 0 2650 
213 1 0.044271 0.00220504 0.001469 0.000423 0 2.23963 0 2650 
1974 1 0.073895 0.00188607 0.001874 0.000423 0 2.23965 0 2650 
886 1 0.0829344 0.00183992 0.00180678 0.000423 -0.821324 2.12897 0.317751 2650 
666 1 0.0837737 0.00183499 0.00127805 0.000423 -0.744671 2.02934 0.0764923 2650 
1136 1 0.0940008 0.00217451 0.00166509 0.000423 0.000643196 2.23497 0.0606212 2650 
355 1 0.111145 0.00181821 0.001866 0.000423 0 2.23961 0 2650 
2142 1 0.126502 0.00187302 0.001576 0.000656 0 2.23969 0 2650 
892 1 0.0236848 0.0028584 0.00169607 0.000423 1.65876 2.8282 -4.06807 2650 
1066 1 0.011114 0.00133655 0.002419 0.000116 0 2.23825 0 2650 
2298 1 0.077914 0.0015634 0.002756 0.000116 0 2.23849 0 2650 
2049 1 0.084987 0.0013164 0.002439 0.000116 0 2.23825 0 2650 
1752 1 0.130965 0.00157336 0.002114 4.2e-05 0 2.23579 0 2650 
1356 1 0.138112 0.00130782 0.00260275 0.000423 1.10502 1.29652 -1.48652 2650 
1664 1 0.158101 0.00128086 0.002099 0.000116 0 2.23815 0 2650 
1274 1 0.018553 0.00180992 0.002496 0.000423 0 2.23965 0 2650 
1776 1 0.021661 0.00201334 0.002691 0.000116 0 2.23849 0 2650 
1138 1 0.101697 0.00178686 0.002616 0.000423 0 2.23961 0 2650 
1422 1 0.104327 0.00207317 0.002201 0.000116 0 2.23815 0 2650 
652 1 0.10982 0.00214423 0.002424 0.000423 0 2.23961 0 2650 
985 1 0.116858 0.00191124 0.002415 0.000116 0 2.23917 0 2650 
94 1 0.127492 0.00195207 0.002577 0.000116 0 2.23825 0 2650 
2089 1 0.055205 0.00145039 0.003367 4.2e-05 0 2.23579 0 2650 
2459 1 0.074324 0.00147558 0.003444 0.000116 0 2.23815 0 2650 
840 1 0.080646 0.00163673 0.003038 0.000116 0 2.23815 0 2650 
95 1 0.130336 0.0011699 0.00308397 0.000116 -4.06674 0.294724 -1.33682 2650 
658 1 0.150029 0.00134698 0.003124 0.000116 0 2.23918 0 2650 
1524 1 0.0221781 0.00224303 0.00301558 0.000423 0.0794613 2.08506 -0.0358902 2650 
2174 1 0.086202 0.00199054 0.003033 0.000116 0 2.23914 0 2650 
254 1 0.0943 0.00191873 0.003434 0.000116 0 2.23815 0 2650 
361 1 0.001268 0.00147782 0.003827 0.000116 0 2.23815 0 2650 
1606 1 0.035843 0.00165504 0.003632 0.000423 0 2.23961 0 2650 
585 1 0.143349 0.00137565 0.004178 4.2e-05 0 2.2374 0 2650 
365 1 0.014662 0.00201541 0.003871 0.000656 0 2.23971 0 2650 
2047 1 0.0422453 0.00180642 0.00404269 0.000423 -0.109297 2.17458 0.0815035 2650 
2050 1 0.0490198 0.00200339 0.00357294 0.000423 -5.51865 -1.1639 -1.19652 2650 
1764 1 0.1048 0.00194043 0.003935 0.000423 0 2.23961 0 2650 
824 1 0.126159 0.00235304 0.003789 0.000423 0 2.23948 0 2650 
648 1 0.133944 0.00216728 0.00427005 0.000423 0.0838685 2.08917 0.0275692 2650 
1816 1 0.147786 0.00218327 0.003726 0.000423 0 2.23961 0 2650 
980 1 0.06939 0.00268474 0.003991 0.000656 0 2.23968 0 2650 
1932 1 0.141016 0.00256284 0.003702 0.000656 0 2.23969 0 2650 
300 1 0.052958 0.000531724 0.00484171 0.000423 1.26543 0.145525 1.79239 2650 
176 1 0.001438 0.00125496 0.00443 0.000116 0 2.23815 0 2650 
1208 1 0.0185024 0.0012777 0.00454151 0.000116 -3.89137 0.441907 1.61315 2650 
2182 1 0.0227239 0.00115936 0.0050475 4.2e-05 0.612096 1.88128 2.03166 2650 
1679 1 0.042503 0.00144101 0.005076 0.000116 0 2.23917 0 2650 
424 1 0.061715 0.00163008 0.005053 0.000423 0 2.23961 0 2650 
1277 1 0.075006 0.00126716 0.005099 0.000116 0 2.23825 0 2650 
1635 1 0.088691 0.00169593 0.004515 0.000423 0 2.23951 0 2650 
1814 1 0.131875 0.00127688 0.004611 0.000116 0 2.23849 0 2650 
188 1 0.064849 0.00173177 0.005091 0.000423 0 2.23951 0 2650 
2366 1 0.108993 0.00189788 0.004482 0.000423 0 2.23961 0 2650 
2258 1 0.115895 0.00204292 0.00444 0.000656 0 2.23969 0 2650 
573 1 0.117631 0.00179918 0.005072 4.2e-05 0 2.23579 0 2650 
1123 1 0.134858 0.00212665 0.004516 0.000423 0 2.23963 0 2650 
345 1 0.146378 0.00221719 0.004988 0.000423 0 2.23961 0 2650 
1883 1 0.158442 0.001949 0.004964 0.000423 0 2.23951 0 2650 
916 1 0.135662 0.000605322 0.00589845 0.000423 -1.264 0.226579 1.70038 2650 
1446 1 0.033447 0.00158658 0.005416 0.000116 0 2.23824 0 2650 
1659 1 0.055425 0.00124254 0.005474 0.000116 0 2.23825 0 2650 
1806 1 0.067083 0.00234857 0.005229 0.000423 0 2.23948 0 2650 
1040 1 0.099414 0.00240138 0.005841 0.000423 0 2.23951 0 2650 
881 1 0.115653 0.00195075 0.00591521 0.000656 0.207126 -0.626163 -2.2878 2650 
104 1 0.020242 0.00172128 0.006244 0.000423 0 2.23963 0 2650 
1819 1 0.038335 0.00130772 0.006672 0.000116 0 2.23815 0 2650 
628 1 0.073589 0.00162745 0.006621 0.000423 0 2.23948 0 2650 
1627 1 0.076565 0.00150915 0.006259 0.000116 0 2.23815 0 2650 
218 1 0.080191 0.00160449 0.006156 0.000423 0 2.23961 0 2650 
1963 1 0.083996 0.00122704 0.006477 4.2e-05 0 2.23441 0 2650 
1852 1 0.154146 0.00159586 0.005953 0.000423 0 2.23963 0 2650 
831 1 0.025684 0.00216535 0.00637 0.000423 0 2.23961 0 2650 
1820 1 0.09489 0.0019132 0.006065 4.2e-05 0 2.23579 0 2650 
352 1 0.101738 0.00182111 0.00634067 0.000423 0.453302 1.57283 -1.58017 2650 
2111 1 0.136698 0.00187935 0.006144 0.000423 0 2.23965 0 2650 
1410 1 0.150839 0.00173434 0.006562 4.2e-05 0 2.23579 0 2650 
2305 1 0.0655173 0.00309258 0.00645163 0.000116 -0.178341 6.33442 0.435709 2650 
779 1 0.0605986 0.00425481 0.00608338 0.000423 3.85388 4.10676 0.835576 2650 
960 1 0.00685 0.00125624 0.006958 0.000116 0 2.23815 0 2650 
1233 1 0.008632 0.00169817 0.007405 0.000423 0 2.23951 0 2650 
2425 1 0.026329 0.00172312 0.006758 0.000116 0 2.23824 0 2650 
1810 1 0.043944 0.00129525 0.007253 0.000116 0 2.23815 0 2650 
575 1 0.113515 0.00171327 0.006827 0.000423 0 2.23961 0 2650 
1387 1 0.140551 0.00165209 0.007306 0.000423 0 2.23948 0 2650 
1909 1 0.018376 0.00205051 0.007196 0.000423 0 2.23963 0 2650 
2385 1 0.0277648 0.00211787 0.00733794 0.000423 -0.879729 2.50774 -2.04498 2650 
1531 1 0.029084 0.0020313 0.007413 0.000423 0 2.23961 0 2650 
1307 1 0.035736 0.00189163 0.006764 0.000116 0 2.23825 0 2650 
2234 1 0.053132 0.00239223 0.007104 0.000423 0 2.23965 0 2650 
2128 1 0.115633 0.00179621 0.006908 0.000116 0 2.23849 0 2650 
200 1 0.105636 0.000858891 0.00792762 0.000423 0.247037 0.673181 -0.558684 2650 
2093 1 0.133208 0.00159834 0.007989 0.000423 0 2.23948 0 2650 
554 1 0.003153 0.00178353 0.007568 4.2e-05 0 2.23579 0 2650 
917 1 0.028712 0.00180516 0.008079 0.000116 0 2.23849 0 2650 
18 1 0.083283 0.00177783 0.007617 0.000116 0 2.23914 0 2650 
1960 1 0.094905 0.00228343 0.008097 0.000423 0 2.23963 0 2650 
1159 1 0.150815 0.00202139 0.007685 0.000423 0 2.23963 0 2650 
706 1 0.0611579 0.00273373 0.0076967 0.000423 0.265473 2.54909 -0.409458 2650 
967 1 0.045216 0.00162179 0.009072 0.000423 0 2.23965 0 2650 
1946 1 0.09912 0.00153088 0.009084 4.2e-05 0 2.23579 0 2650 
5 1 0.137396 0.00136489 0.008337 0.000116 0 2.23918 0 2650 
1173 1 0.152246 0.00149293 0.009042 4.2e-05 0 2.23441 0 2650 
2121 1 0.1556 0.00168082 0.008517 4.2e-05 0 2.23729 0 2650 
2264 1 0.159154 0.00137263 0.008714 0.000116 0 2.23815 0 2650 
1517 1 0.004885 0.00221848 0.008365 0.000423 0 2.23963 0 2650 
366 1 0.039524 0.00240307 0.008361 0.000423 0 2.23961 0 2650 
337 1 0.078317 0.00186502 0.00903 0.000656 0 2.23968 0 2650 
508 1 0.101064 0.00197165 0.00868798 0.000656 -0.0949987 2.1825 0.331157 2650 
1353 1 0.135932 0.00246677 0.0090761 0.000656 0.000357376 2.23698 0.000135862 2650 
157 1 0.134803 0.00395781 0.00864697 4.2e-05 -1.36172 3.32842 -0.51768 2650 
165 1 0.041117 0.00148006 0.009537 0.000116 0 2.23815 0 2650 
2015 1 0.098067 0.0013828 0.009838 0.000116 0 2.23918 0 2650 
552 1 0.105033 0.00148704 0.00929143 0.000423 -0.505712 0.411121 1.14369 2650 
784 1 0.123861 0.00135642 0.00960909 0.000423 1.45671 1.77523 -0.546539 2650 
1194 1 0.138262 0.00137313 0.009231 0.000116 0 2.23849 0 2650 
404 1 0.117705 0.00238664 0.009716 0.000423 0 2.23948 0 2650 
1881 1 0.119492 0.00216737 0.009255 0.000656 0 2.23968 0 2650 
1688 1 0.141376 0.00186443 0.009894 0.000656 0 2.23979 0 2650 
1412 1 0.145768 0.00174839 0.009397 0.000116 0 2.23825 0 2650 
691 1 0.065911 0.00172281 0.010344 0.000423 0 2.23951 0 2650 
1418 1 0.11782 0.0015925 0.010281 0.000116 0 2.23849 0 2650 
2145 1 0.121009 0.000980667 0.0106791 0.000423 -1.86021 0.787823 0.697926 2650 
212 1 0.148551 0.00159649 0.010262 0.000423 0 2.23961 0 2650 
623 1 0.017229 0.00219758 0.010022 0.000423 0 2.23951 0 2650 
1163 1 0.038505 0.00178979 0.010104 4.2e-05 0 2.23441 0 2650 
2294 1 0.067079 0.00234037 0.010632 0.000423 0 2.23961 0 2650 
1455 1 0.0690139 0.00189042 0.0103949 0.000656 -0.0222721 2.25046 -0.022071 2650 
59 1 0.080657 0.00193221 0.010435 0.000656 0 2.23968 0 2650 
177 1 0.102003 0.00187604 0.01063 0.000423 0 2.23948 0 2650 
1335 1 0.129495 0.00187008 0.009967 0.000116 0 2.23849 0 2650 
866 1 0.150967 0.00217498 0.010212 0.000423 0 2.23965 0 2650 
2197 1 0.0294041 0.000923355 0.0111487 0.000423 1.04788 1.01169 2.43586 2650 
2373 1 0.056707 0.00129836 0.011468 4.2e-05 0 2.23579 0 2650 
1984 1 0.0694581 0.00159232 0.0109521 0.000116 -4.88177 -0.0206253 3.99172 2650 
1548 1 0.098569 0.00148549 0.010796 0.000116 0 2.23815 0 2650 
1842 1 0.128813 0.00142858 0.011369 0.000116 0 2.23815 0 2650 
1717 1 0.139512 0.00142225 0.011002 4.2e-05 0 2.23418 0 2650 
1134 1 0.141049 0.00167583 0.010696 4.2e-05 0 2.23441 0 2650 
1424 1 0.018389 0.0021452 0.010884 0.000423 0 2.23961 0 2650 
859 1 0.020765 0.00197531 0.011218 0.000423 0 2.23961 0 2650 
2442 1 0.061003 0.00189859 0.011176 0.000116 0 2.23815 0 2650 
278 1 0.078922 0.00198424 0.011437 0.000116 0 2.23849 0 2650 
2046 1 0.131359 0.00177658 0.0107751 0.000116 -0.178249 1.93796 -0.108222 2650 
972 1 0.159836 0.00174334 0.011222 0.000423 0 2.23961 0 2650 
605 1 0.119508 0.00335619 0.0108403 0.000116 -0.187386 6.65539 -0.0421371 2650 
1886 1 0.024919 0.00124939 0.01171 0.000116 0 2.23914 0 2650 
2390 1 0.033791 0.00141387 0.012191 0.000116 0 2.23815 0 2650 
219 1 0.04317 0.00162426 0.011985 0.000116 0 2.23815 0 2650 
1733 1 0.093161 0.00131539 0.012041 0.000116 0 2.23815 0 2650 
1899 1 0.0955512 0.00128311 0.0118261 0.000116 1.87708 1.92082 0.258428 2650 
460 1 0.003722 0.00200477 0.011587 0.000423 0 2.23965 0 2650 
1542 1 0.041337 0.00234452 0.011979 0.000423 0 2.23961 0 2650 
1236 1 0.0936465 0.00199718 0.0115697 0.000423 -0.0535116 2.20749 0.000813506 2650 
2205 1 0.125225 0.00196037 0.012172 0.000116 0 2.23824 0 2650 
966 1 0.140948 0.0020304 0.011888 0.000116 0 2.23825 0 2650 
2067 1 0.141648 0.00237003 0.011964 0.000423 0 2.23951 0 2650 
1112 1 0.151852 0.00189249 0.012176 4.2e-05 0 2.2374 0 2650 
67 1 0.096194 0.00258117 0.011854 0.000656 0 2.23979 0 2650 
2040 1 0.0707036 0.00353849 0.0115666 0.000116 -0.83955 4.01824 -1.40681 2650 
650 1 0.134166 0.000102854 0.0124798 4.2e-05 3.75537 -0.654127 2.28004 2650 
197 1 0.001978 0.00138326 0.012413 4.2e-05 0 2.23729 0 2650 
489 1 0.047522 0.0015974 0.012445 0.000423 0 2.23951 0 2650 
1205 1 0.074386 0.00127756 0.012556 0.000116 0 2.23918 0 2650 
2175 1 0.099879 0.00144648 0.012522 0.000116 0 2.23815 0 2650 
1598 1 0.140638 0.00127388 0.012616 0.000116 0 2.23825 0 2650 
2495 1 0.004327 0.00188316 0.013029 0.000423 0 2.23961 0 2650 
895 1 0.045265 0.0019994 0.012269 0.000656 0 2.23968 0 2650 
597 1 0.052746 0.00208879 0.012275 0.000423 0 2.23948 0 2650 
738 1 0.077063 0.00185342 0.012617 0.000423 0 2.23963 0 2650 
294 1 0.083181 0.00183797 0.012766 0.000423 0 2.23948 0 2650 
794 1 0.101794 0.00186443 0.012964 0.000656 0 2.23979 0 2650 
723 1 0.135627 0.00195902 0.012992 0.000116 0 2.23815 0 2650 
1396 1 0.149437 0.00236087 0.012358 0.000423 0 2.23965 0 2650 
1719 1 0.032653 0.0017056 0.013588 0.000423 0 2.23963 0 2650 
265 1 0.051603 0.00142686 0.013845 0.000116 0 2.23849 0 2650 
459 1 0.065523 0.00142186 0.013362 0.000116 0 2.23815 0 2650 
1241 1 0.080082 0.0012694 0.01365 0.000116 0 2.23825 0 2650 
1385 1 0.09883 0.00149929 0.013076 0.000116 0 2.23824 0 2650 
1601 1 0.129629 0.00170163 0.013243 0.000116 0 2.23815 0 2650 
1348 1 0.132843 0.00133814 0.013729 0.000116 0 2.23824 0 2650 
1284 1 0.020685 0.00236853 0.013078 0.000423 0 2.23963 0 2650 
2120 1 0.056455 0.00231093 0.013138 0.000423 0 2.23961 0 2650 
954 1 0.0719295 0.00188772 0.0136208 0.000656 0.00469377 2.2299 0.00786524 2650 
2302 1 0.075182 0.00172991 0.013287 0.000423 0 2.23961 0 2650 
2436 1 0.084941 0.00179659 0.013757 0.000116 0 2.23815 0 2650 
1833 1 0.115349 0.00219404 0.013093 0.000423 0 2.23948 0 2650 
1649 1 0.14757 0.00223192 0.013797 0.000423 0 2.23963 0 2650 
2243 1 0.046104 0.0026905 0.013449 0.000656 0 2.23969 0 2650 
27 1 0.030797 0.00151361 0.014592 0.000116 0 2.23914 0 2650 
48 1 0.035058 0.00151714 0.013916 0.000116 0 2.23917 0 2650 
152 1 0.048531 0.00126282 0.014359 0.000116 0 2.23914 0 2650 
1452 1 0.057611 0.00167701 0.014495 0.000116 0 2.23815 0 2650 
1931 1 0.102655 0.00116421 0.014112 4.2e-05 0 2.23579 0 2650 
630 1 0.10425 0.00141872 0.014428 0.000116 0 2.23824 0 2650 
790 1 0.126922 0.00126954 0.01428 0.000116 0 2.23914 0 2650 
2097 1 0.157939 0.00145396 0.014523 4.2e-05 0 2.2374 0 2650 
1801 1 0.010927 0.00196114 0.014115 0.000423 0 2.23948 0 2650 
610 1 0.039545 0.00207889 0.013854 0.000423 0 2.23951 0 2650 
412 1 0.055062 0.002357 0.014355 0.000423 0 2.23961 0 2650 
1135 1 0.075772 0.00184468 0.014316 0.000423 0 2.23948 0 2650 
1458 1 0.142812 0.00186739 0.014111 0.000116 0 2.23914 0 2650 
1257 1 0.1497 0.00193575 0.014178 0.000116 0 2.23824 0 2650 
1535 1 0.114926 0.00295029 0.013944 0.000423 -0.281499 -3.14964 3.10928 2650 
1002 1 0.008661 0.00129205 0.015305 0.000116 0 2.23815 0 2650 
1998 1 0.04633 0.00125797 0.01483 4.2e-05 0 2.23729 0 2650 
1308 1 0.051143 0.00137608 0.015138 0.000116 0 2.23918 0 2650 
724 1 0.051952 0.00145091 0.015061 0.000116 0 2.23914 0 2650 
1484 1 0.053459 0.00129205 0.015164 0.000116 0 2.23815 0 2650 
616 1 0.060796 0.00155168 0.014808 0.000116 0 2.23815 0 2650 
1160 1 0.068631 0.00168698 0.014917 0.000423 0 2.23951 0 2650 
2042 1 0.087817 0.00132658 0.015033 0.000116 0 2.23815 0 2650 
1790 1 0.014573 0.00201294 0.015413 0.000116 0 2.23914 0 2650 
1207 1 0.0965819 0.00204816 0.0153045 0.000656 -0.0548809 2.24356 0.0566914 2650 
211 1 0.124407 0.00226389 0.0149 0.000423 0 2.23961 0 2650 
2335 1 0.133151 0.00204217 0.01467 0.000423 0 2.23961 0 2650 
146 1 0.156933 0.00242528 0.015215 0.000656 0 2.23971 0 2650 
934 1 0.0258831 0.00169659 0.0155225 0.000423 0.0468657 2.22742 -0.0392401 2650 
64 1 0.050143 0.00136815 0.015685 0.000116 0 2.23815 0 2650 
2177 1 0.11132 0.00161083 0.015853 0.000423 0 2.23951 0 2650 
418 1 0.149012 0.0016825 0.015862 0.000423 0 2.23951 0 2650 
1673 1 0.014714 0.00204121 0.015963 0.000423 0 2.23961 0 2650 
711 1 0.025164 0.00183271 0.0161246 0.000423 -0.046851 2.25189 0.0392278 2650 
314 1 0.09027 0.00190754 0.016032 0.000116 0 2.23815 0 2650 
783 1 0.124383 0.00237247 0.01615 0.000656 0 2.23969 0 2650 
2091 1 0.104933 0.00258959 0.0161773 0.000656 0.187785 2.42918 -0.212499 2650 
57 1 0.057367 0.00161665 0.016604 0.000423 0 2.23961 0 2650 
2246 1 0.079128 0.00119352 0.016383 4.2e-05 0 2.23441 0 2650 
413 1 0.0168387 0.00192385 0.0168323 0.000656 0.33165 1.88219 -0.708339 2650 
587 1 0.04028 0.0018482 0.016356 4.2e-05 0 2.23441 0 2650 
1602 1 0.042847 0.00192915 0.016354 0.000116 0 2.23917 0 2650 
1809 1 0.084202 0.00204793 0.016295 0.000423 0 2.23961 0 2650 
1255 1 0.104657 0.00172728 0.0168781 0.000423 1.88538 1.03715 0.0182326 2650 
1979 1 0.148755 0.00219351 0.016686 0.000423 0 2.23961 0 2650 
1440 1 0.051411 0.00252477 0.016331 0.000656 0 2.23969 0 2650 
2192 1 0.0280319 0.00440772 0.0165252 0.000656 -5.52324 -1.60921 -1.05333 2650 
922 1 0.101162 0.00473483 0.0169662 0.000423 -1.17207 -1.49146 -0.105247 2650 
582 1 0.145426 0.000864682 0.0171499 0.000423 -1.37323 0.61928 -0.0583622 2650 
88 1 0.148422 0.000859237 0.0172772 0.000423 1.60152 0.903831 0.0680646 2650 
505 1 0.079356 0.00165438 0.017099 0.000116 0 2.23825 0 2650 
1739 1 0.08215 0.00122575 0.01734 4.2e-05 0 2.2374 0 2650 
2474 1 0.083353 0.00159842 0.017263 0.000116 0 2.23825 0 2650 
290 1 0.090462 0.00143382 0.017451 4.2e-05 0 2.2374 0 2650 
753 1 0.106579 0.00149625 0.017074 0.000116 0 2.23849 0 2650 
269 1 0.115081 0.00137537 0.017289 0.000116 0 2.23849 0 2650 
1589 1 0.13054 0.00146564 0.01743 0.000116 0 2.23917 0 2650 
1439 1 0.160999 0.00128494 0.017183 4.2e-05 0 2.23579 0 2650 
198 1 0.073518 0.00222391 0.017315 0.000423 0 2.23961 0 2650 
1537 1 0.088848 0.00201691 0.017169 0.000423 0 2.23963 0 2650 
897 1 0.133624 0.00196815 0.017326 0.000116 0 2.23914 0 2650 
1211 1 0.099148 0.00168652 0.018421 0.000116 0 2.23849 0 2650 
1481 1 0.104109 0.00137687 0.0182333 0.000116 0.99118 2.16272 0.844179 2650 
359 1 0.125342 0.00168348 0.018465 0.000116 0 2.23825 0 2650 
943 1 0.039469 0.00207413 0.018546 0.000116 0 2.23815 0 2650 
2486 1 0.042163 0.00207033 0.018514 0.000423 0 2.23961 0 2650 
1887 1 0.063275 0.00223192 0.018064 0.000423 0 2.23963 0 2650 
1304 1 0.082867 0.00207217 0.018006 0.000423 0 2.23951 0 2650 
1140 1 0.138515 0.0017924 0.0180505 0.000423 0.0665955 2.2499 0.235381 2650 
72 1 0.01798 0.0016224 0.019191 0.000116 0 2.23824 0 2650 
1058 1 0.033484 0.00162202 0.018874 0.000116 0 2.23815 0 2650 
770 1 0.087399 0.00148102 0.018895 0.000116 0 2.23815 0 2650 
976 1 0.091588 0.00160961 0.019221 0.000116 0 2.23825 0 2650 
217 1 0.11624 0.00149699 0.01924 0.000116 0 2.23917 0 2650 
1129 1 0.030015 0.00194112 0.019214 0.000116 0 2.23815 0 2650 
1271 1 0.034605 0.00225805 0.019326 0.000423 0 2.23951 0 2650 
1782 1 0.109585 0.00207801 0.018854 0.000423 0 2.23961 0 2650 
103 1 0.134585 0.00207154 0.01865 0.000116 0 2.23849 0 2650 
2290 1 0.058947 0.00258044 0.018645 0.000656 0 2.23969 0 2650 
327 1 0.019879 0.00171456 0.020058 0.000423 0 2.23963 0 2650 
1941 1 0.102976 0.00139501 0.019466 0.000116 0 2.23815 0 2650 
467 1 0.008277 0.00220504 0.020141 0.000423 0 2.23963 0 2650 
1380 1 0.012312 0.00182677 0.019777 0.000423 0 2.23948 0 2650 
491 1 0.037832 0.00185806 0.020112 0.000116 0 2.23825 0 2650 
863 1 0.056957 0.00236759 0.019571 0.000423 0 2.23965 0 2650 
2453 1 0.070332 0.0020747 0.019926 0.000116 0 2.23917 0 2650 
255 1 0.111674 0.00197009 0.019727 0.000423 0 2.23948 0 2650 
635 1 0.124633 0.00207801 0.019499 0.000423 0 2.23961 0 2650 
1191 1 0.147173 0.00199676 0.019927 0.000423 0 2.23963 0 2650 
1989 1 0.048598 0.00453567 0.0195168 0.000656 9.86321 -0.357185 1.12485 2650 
600 1 0.0151257 0.000879534 0.0205037 0.000423 -1.27421 0.60509 2.80788 2650 
1493 1 0.0144807 0.00161181 0.0207745 0.000423 -0.0310642 2.26977 0.0333687 2650 
2354 1 0.0146503 0.00116476 0.0204821 0.000116 -1.42987 1.34357 0.462308 2650 
1217 1 0.018898 0.00159964 0.020259 0.000423 0 2.23951 0 2650 
37 1 0.034376 0.0016985 0.020581 0.000116 0 2.23824 0 2650 
2245 1 0.084222 0.00137702 0.020706 0.000116 0 2.23914 0 2650 
2433 1 0.120631 0.00144643 0.020189 0.000116 0 2.23914 0 2650 
1861 1 0.14233 0.00162608 0.020248 0.000116 0 2.23849 0 2650 
501 1 0.149638 0.00171637 0.020687 4.2e-05 0 2.23441 0 2650 
809 1 0.022569 0.00181047 0.020657 0.000116 0 2.23917 0 2650 
1065 1 0.027926 0.00231125 0.020581 0.000423 0 2.23961 0 2650 
2085 1 0.051831 0.00204732 0.02068 0.000423 0 2.23965 0 2650 
1643 1 0.072452 0.00231832 0.020494 0.000423 0 2.23965 0 2650 
2372 1 0.083067 0.00172986 0.020627 0.000116 0 2.23917 0 2650 
1849 1 0.097369 0.00213208 0.02094 0.000423 0 2.23961 0 2650 
888 1 0.136044 0.00176446 0.020613 0.000423 0 2.23961 0 2650 
231 1 0.151138 0.00184894 0.020606 0.000423 0 2.23963 0 2650 
1067 1 0.0164808 0.00266972 0.0204404 0.000423 -0.390084 2.45924 -0.821365 2650 
2139 1 0.0960879 0.00354645 0.0208303 0.000423 -3.3797 -1.7183 1.96296 2650 
2423 1 0.0355737 0.0010034 0.0215818 0.000423 -0.856805 1.52038 2.07117 2650 
2451 1 0.048261 0.00169594 0.021077 4.2e-05 0 2.23441 0 2650 
746 1 0.081277 0.00162161 0.020981 0.000116 0 2.23849 0 2650 
429 1 0.08347 0.00171008 0.021246 0.000423 0 2.23963 0 2650 
1292 1 0.094998 0.0016278 0.021521 0.000116 0 2.23914 0 2650 
2172 1 0.121251 0.00134851 0.021576 0.000116 0 2.23849 0 2650 
1669 1 0.13613 0.00166234 0.02153 0.000423 0 2.23951 0 2650 
111 1 0.145579 0.00124106 0.021193 0.000116 0 2.23849 0 2650 
15 1 0.048347 0.00203125 0.021217 0.000116 0 2.23849 0 2650 
2349 1 0.144223 0.00183293 0.021596 0.000423 0 2.23961 0 2650 
2094 1 0.153133 0.00239223 0.021671 0.000423 0 2.23965 0 2650 
1388 1 0.0439164 0.00263234 0.0216763 0.000116 0.927166 5.39145 -1.02905 2650 
396 1 0.0958005 0.00315526 0.0218329 4.2e-05 2.60542 -4.90709 13.1708 2650 
2223 1 0.0632685 0.000781097 0.0223825 0.000423 -0.661647 1.47788 -1.24832 2650 
751 1 0.020676 0.0016328 0.022507 0.000116 0 2.23849 0 2650 
2210 1 0.034314 0.00163134 0.022213 0.000116 0 2.23917 0 2650 
414 1 0.066167 0.00126428 0.021955 0.000116 0 2.23824 0 2650 
2096 1 0.096139 0.00141593 0.022521 4.2e-05 0 2.2374 0 2650 
2123 1 0.020135 0.00180605 0.022133 0.000423 0 2.23961 0 2650 
2416 1 0.041036 0.00190012 0.021765 0.000423 0 2.23961 0 2650 
674 1 0.0429089 0.00194758 0.0219081 0.000656 -0.0346184 2.22423 -0.0309873 2650 
1243 1 0.061472 0.00197357 0.021782 4.2e-05 0 2.23579 0 2650 
493 1 0.126871 0.00200051 0.022504 0.000423 0 2.23951 0 2650 
1994 1 0.142649 0.00212504 0.022027 0.000423 0 2.23961 0 2650 
1560 1 0.145212 0.0022153 0.022301 0.000423 0 2.23965 0 2650 
1153 1 0.0190755 0.0047202 0.0221285 0.000116 -7.43503 -3.80026 -3.91947 2650 
249 1 0.022254 0.00125225 0.0233 0.000116 0 2.23849 0 2650 
993 1 0.028135 0.00152034 0.023309 0.000116 0 2.23815 0 2650 
2270 1 0.000832 0.00177185 0.023295 0.000423 0 2.23965 0 2650 
38 1 0.0177701 0.00205387 0.0231551 0.000423 0.390905 2.01984 0.823094 2650 
1986 1 0.066282 0.00189034 0.022706 4.2e-05 0 2.23441 0 2650 
2314 1 0.076991 0.00207378 0.022691 0.000116 0 2.23849 0 2650 
1246 1 0.080504 0.00200578 0.023289 0.000116 0 2.23825 0 2650 
1504 1 0.095192 0.00176405 0.022785 0.000116 0 2.23825 0 2650 
1895 1 0.107656 0.00195824 0.023279 4.2e-05 0 2.23729 0 2650 
1118 1 0.119151 0.00184545 0.022741 0.000116 0 2.23849 0 2650 
1642 1 0.137147 0.00176513 0.023316 0.000423 0 2.23965 0 2650 
646 1 0.140105 0.00195259 0.023238 0.000423 0 2.23961 0 2650 
82 1 0.154961 0.00189077 0.023145 0.000423 0 2.23951 0 2650 
923 1 0.161252 0.00173577 0.023014 0.000116 0 2.23849 0 2650 
2056 1 0.156448 0.000627885 0.0235406 0.000116 0.234862 1.0986 -3.43682 2650 
2115 1 0.016765 0.00169178 0.02409 0.000116 0 2.23824 0 2650 
1263 1 0.073086 0.00160993 0.023941 0.000423 0 2.23961 0 2650 
446 1 0.101555 0.00132559 0.023987 4.2e-05 0 2.2376 0 2650 
400 1 0.131378 0.00128258 0.023773 4.2e-05 0 2.23441 0 2650 
518 1 0.03397 0.00178902 0.023721 0.000116 0 2.23914 0 2650 
1937 1 0.043278 0.00184398 0.023552 0.000116 0 2.23824 0 2650 
1456 1 0.076694 0.00204692 0.023974 0.000116 0 2.23849 0 2650 
879 1 0.116971 0.00196068 0.023556 4.2e-05 0 2.23418 0 2650 
1812 1 0.145705 0.00183102 0.02396 0.000423 0 2.23963 0 2650 
2136 1 0.002327 0.00125449 0.024891 0.000116 0 2.23849 0 2650 
1583 1 0.0231361 0.00158934 0.0242746 0.000423 -0.153549 2.05382 -0.0767161 2650 
2381 1 0.054499 0.00134851 0.024569 0.000116 0 2.23849 0 2650 
958 1 0.054851 0.00154182 0.024231 0.000116 0 2.23824 0 2650 
828 1 0.159183 0.00155167 0.024535 0.000116 0 2.23914 0 2650 
339 1 0.035201 0.0018256 0.024381 0.000423 0 2.23965 0 2650 
617 1 0.041439 0.00223342 0.024608 0.000423 0 2.23951 0 2650 
47 1 0.085962 0.00241203 0.024809 0.000423 0 2.23961 0 2650 
544 1 0.096732 0.00251357 0.024122 0.000656 0 2.23969 0 2650 
1056 1 0.129981 0.00196746 0.024264 0.000656 0 2.23979 0 2650 
2269 1 0.138223 0.00209144 0.024436 0.000423 0 2.23961 0 2650 
1225 1 0.148005 0.00267578 0.024592 0.000656 0 2.23968 0 2650 
2375 1 0.039706 0.00145669 0.024993 0.000116 0 2.23917 0 2650 
2356 1 0.082785 0.00136143 0.025415 0.000116 0 2.23815 0 2650 
120 1 0.124076 0.00169593 0.025565 0.000423 0 2.23951 0 2650 
2499 1 0.137558 0.00170488 0.025442 4.2e-05 0 2.23441 0 2650 
331 1 0.008847 0.00204319 0.025112 0.000116 0 2.23824 0 2650 
1935 1 0.054785 0.00206198 0.025329 0.000116 0 2.23815 0 2650 
1374 1 0.063247 0.00182445 0.0253658 0.000423 -0.200178 2.24298 0.113202 2650 
719 1 0.064868 0.00238018 0.0252572 0.000656 0.244649 2.443 0.295326 2650 
437 1 0.068747 0.00222056 0.024959 0.000656 0 2.23979 0 2650 
1104 1 0.096386 0.00217879 0.025692 0.000423 0 2.23961 0 2650 
721 1 0.0990279 0.00233929 0.0251979 0.000656 -6.18631 2.71423 -3.52791 2650 
1745 1 0.10678 0.00175192 0.025316 0.000423 0 2.23951 0 2650 
2009 1 0.136829 0.00189611 0.0252463 0.000656 0.00332919 2.2293 -0.0206489 2650 
2405 1 0.119159 0.0034356 0.0250622 0.000423 0 4.5976 -3.11156 2650 
1340 1 0.0435525 0.00169249 0.0257272 0.000656 -4.46023 1.81539 -3.18436 2650 
2409 1 0.0454573 0.000957816 0.0260366 0.000116 0.231174 1.28515 -0.928459 2650 
2469 1 0.071532 0.00124043 0.025811 0.000116 0 2.23914 0 2650 
1319 1 0.091555 0.00162017 0.0258 0.000423 0 2.23961 0 2650 
130 1 0.115638 0.00155973 0.026445 0.000116 0 2.23824 0 2650 
2126 1 0.133494 0.0015443 0.025818 4.2e-05 0 2.23579 0 2650 
1942 1 0.145658 0.00151523 0.025799 4.2e-05 0 2.23579 0 2650 
86 1 0.158832 0.00166811 0.026032 0.000116 0 2.23914 0 2650 
2283 1 0.075251 0.00179787 0.026091 0.000116 0 2.23815 0 2650 
930 1 0.077129 0.00187644 0.025773 0.000423 0 2.23961 0 2650 
1025 1 0.086945 0.00234527 0.025794 0.000656 0 2.23969 0 2650 
631 1 0.153063 0.00201264 0.025957 0.000423 0 2.23948 0 2650 
2149 1 0.020829 0.00160765 0.02721 0.000116 0 2.23914 0 2650 
2030 1 0.02889 0.00137582 0.02685 0.000116 0 2.23815 0 2650 
817 1 0.0758524 0.00121775 0.0267715 0.000116 -0.294337 1.42911 -1.3698 2650 
1490 1 0.010825 0.00206524 0.026744 0.000423 0 2.23965 0 2650 
70 1 0.049569 0.00230488 0.027006 0.000423 0 2.23965 0 2650 
1638 1 0.051593 0.00226017 0.026922 0.000656 0 2.23969 0 2650 
1777 1 0.057211 0.00199025 0.026905 0.000423 0 2.23948 0 2650 
1117 1 0.089455 0.00188764 0.026925 0.000423 0 2.23961 0 2650 
2262 1 0.110514 0.0020313 0.026869 0.000423 0 2.23961 0 2650 
977 1 0.13334 0.00197301 0.026793 4.2e-05 0 2.23441 0 2650 
428 1 0.156238 0.00204009 0.0266162 0.000423 -0.00616357 2.16611 0.0901936 2650 
2058 1 0.131906 0.000520355 0.0279362 0.000423 0.102184 0.31798 -2.00204 2650 
1722 1 0.015485 0.00168002 0.02792 0.000423 0 2.23965 0 2650 
458 1 0.023778 0.00134709 0.02804 0.000116 0 2.23824 0 2650 
266 1 0.075311 0.00149286 0.0272849 0.000423 -8.30632 1.59715 -0.735131 2650 
1195 1 0.159417 0.00144501 0.027491 4.2e-05 0 2.2374 0 2650 
1086 1 0.110601 0.0023452 0.027997 0.000423 0 2.23965 0 2650 
571 1 0.123616 0.00174463 0.027453 0.000423 0 2.23961 0 2650 
1400 1 0.131684 0.00206097 0.027456 0.000423 0 2.23951 0 2650 
2107 1 0.138375 0.00192232 0.027461 0.000116 0 2.23824 0 2650 
23 1 0.0951638 0.00445517 0.0274091 0.000423 3.56835 5.37468 -0.113842 2650 
441 1 0.136337 0.000767951 0.0282974 0.000116 -0.601663 1.16007 3.73175 2650 
1076 1 0.006655 0.00121372 0.028645 4.2e-05 0 2.23763 0 2650 
1662 1 0.009982 0.00135568 0.028422 0.000116 0 2.23815 0 2650 
944 1 0.0578178 0.00111758 0.0281684 0.000116 4.01799 1.62777 -3.43374 2650 
2059 1 0.066155 0.00118235 0.028516 4.2e-05 0 2.23441 0 2650 
261 1 0.068779 0.0016713 0.028837 0.000423 0 2.23951 0 2650 
318 1 0.0774242 0.00149805 0.0283009 0.000423 -0.91326 1.89762 -0.141438 2650 
1320 1 0.088834 0.00145005 0.028395 0.000116 0 2.23824 0 2650 
882 1 0.08832 0.00156063 0.028089 0.000116 0 2.23815 0 2650 
1562 1 0.106581 0.00145709 0.028147 4.2e-05 0 2.23729 0 2650 
567 1 0.012167 0.00190441 0.028577 0.000116 0 2.23824 0 2650 
1740 1 0.044597 0.0017384 0.028771 0.000116 0 2.23815 0 2650 
2359 1 0.065394 0.00193093 0.028807 0.000656 0 2.23969 0 2650 
271 1 0.023654 0.00156564 0.02955 0.000116 0 2.23849 0 2650 
682 1 0.088745 0.00126269 0.029072 0.000116 0 2.23825 0 2650 
2494 1 0.112264 0.00124281 0.029261 0.000116 0 2.23815 0 2650 
1470 1 0.12141 0.00153316 0.029441 4.2e-05 0 2.23729 0 2650 
1930 1 0.155149 0.00166109 0.029092 0.000116 0 2.23825 0 2650 
66 1 0.028179 0.00190941 0.028997 0.000423 0 2.23963 0 2650 
1763 1 0.047656 0.00231702 0.029583 0.000423 0 2.23963 0 2650 
956 1 0.077236 0.00194587 0.029149 0.000423 0 2.23961 0 2650 
1929 1 0.0944945 0.00200521 0.0291361 0.000116 2.16663 2.17873 1.68219 2650 
1622 1 0.148534 0.00174736 0.028927 0.000116 0 2.23815 0 2650 
431 1 0.152539 0.00194187 0.029046 0.000656 0 2.23979 0 2650 
1915 1 0.030283 0.00267931 0.029516 0.000656 0 2.23969 0 2650 
1228 1 0.0472954 0.00286572 0.0290778 0.000116 -10.5319 4.07973 16.2441 2650 
935 1 0.144854 0.00335885 0.0293731 0.000423 -1.70425 3.46689 -4.28057 2650 
2480 1 0.014403 0.00159491 0.029889 0.000423 0 2.23965 0 2650 
71 1 0.106422 0.00168192 0.030376 0.000423 0 2.23961 0 2650 
620 1 0.130104 0.00159516 0.029694 0.000423 0 2.23951 0 2650 
709 1 0.0731 0.00192641 0.030266 4.2e-05 0 2.23441 0 2650 
1177 1 0.0791654 0.00182363 0.0301542 0.000423 0.940171 1.44594 1.16025 2650 
1489 1 0.085601 0.00238483 0.029983 0.000423 0 2.23961 0 2650 