ITEM: TIMESTEP
90000
ITEM: NUMBER OF ATOMS
2465
ITEM: BOX BOUNDS ff ff ff
-0.005905 0.167905
-0.000656 0.011154
-0.005905 0.167905
ITEM: ATOMS id type x y z radius vx vy vz density 
65 1 0.027038 0.000727101 0.001133 0.000116 0 2.23824 0 2650 
1756 1 0.004144 0.00117768 0.000832 0.000423 0 2.23961 0 2650 
2078 1 0.019324 0.00108522 0.000953 0.000116 0 2.23824 0 2650 
1188 1 0.020639 0.00100378 0.000927 0.000116 0 2.23849 0 2650 
820 1 0.110174 0.00149743 0.001096 0.000656 0 2.2398 0 2650 
2317 1 0.014297 0.00183517 0.001071 0.000423 0 2.23961 0 2650 
1551 1 0.0857401 0.0019185 0.000893285 0.000656 0.551287 1.97103 -0.133068 2650 
84 1 0.108185 0.00201731 0.001133 0.000656 0 2.23968 0 2650 
990 1 0.109742 0.000222028 0.00171015 0.000116 13.1517 1.54325 -13.5855 2650 
2391 1 0.018068 0.00120027 0.001955 4.2e-05 0 2.23757 0 2650 
2340 1 0.031543 0.000989648 0.001662 0.000116 0 2.23914 0 2650 
692 1 0.038362 0.00105836 0.001808 0.000116 0 2.23824 0 2650 
213 1 0.044271 0.00164513 0.001469 0.000423 0 2.23963 0 2650 
240 1 0.0508035 0.00103365 0.00179002 0.000423 -1.06533 1.37752 -1.50895 2650 
1974 1 0.073895 0.00132616 0.001874 0.000423 0 2.23965 0 2650 
886 1 0.0831397 0.00130768 0.00172734 0.000423 -0.821324 2.12897 0.317751 2650 
666 1 0.0839599 0.00132765 0.00125893 0.000423 -0.744671 2.02934 0.0764923 2650 
1136 1 0.0940007 0.00161576 0.00164994 0.000423 0.000643196 2.23497 0.0606212 2650 
355 1 0.111145 0.00125831 0.001866 0.000423 0 2.23961 0 2650 
2142 1 0.126502 0.0013131 0.001576 0.000656 0 2.23969 0 2650 
2403 1 0.006528 0.00181149 0.001419 0.000423 0 2.23961 0 2650 
1432 1 0.016035 0.00183645 0.001465 0.000423 0 2.23961 0 2650 
1066 1 0.011114 0.000776985 0.002419 0.000116 0 2.23825 0 2650 
1370 1 0.0450129 0.00079108 0.00197891 0.000116 5.56923 1.60978 -4.153 2650 
2049 1 0.084987 0.000756841 0.002439 0.000116 0 2.23825 0 2650 
1664 1 0.158101 0.000721323 0.002099 0.000116 0 2.23815 0 2650 
1274 1 0.018553 0.00125001 0.002496 0.000423 0 2.23965 0 2650 
1776 1 0.021661 0.00145372 0.002691 0.000116 0 2.23849 0 2650 
2298 1 0.077914 0.00100378 0.002756 0.000116 0 2.23849 0 2650 
1138 1 0.101697 0.00122696 0.002616 0.000423 0 2.23961 0 2650 
1422 1 0.104327 0.00151363 0.002201 0.000116 0 2.23815 0 2650 
652 1 0.10982 0.00158433 0.002424 0.000423 0 2.23961 0 2650 
985 1 0.116858 0.00135145 0.002415 0.000116 0 2.23917 0 2650 
94 1 0.127492 0.0013925 0.002577 0.000116 0 2.23825 0 2650 
1752 1 0.130965 0.00101441 0.002114 4.2e-05 0 2.23579 0 2650 
892 1 0.0232796 0.00213667 0.0026801 0.000423 1.67355 2.8002 -4.12195 2650 
2089 1 0.055205 0.000891445 0.003367 4.2e-05 0 2.23579 0 2650 
2459 1 0.074324 0.000916042 0.003444 0.000116 0 2.23815 0 2650 
658 1 0.150029 0.000787179 0.003124 0.000116 0 2.23918 0 2650 
1061 1 0.0211274 0.00117302 0.00307053 0.000423 -1.67355 1.3264 -4.76518 2650 
1524 1 0.0221583 0.00172176 0.00302455 0.000423 0.0794613 2.08506 -0.0358902 2650 
840 1 0.080646 0.00107719 0.003038 0.000116 0 2.23815 0 2650 
2174 1 0.086202 0.00143076 0.003033 0.000116 0 2.23914 0 2650 
254 1 0.0943 0.0013592 0.003434 0.000116 0 2.23815 0 2650 
95 1 0.131353 0.00109622 0.00341817 0.000116 -4.06674 0.294724 -1.33682 2650 
1356 1 0.137835 0.000983691 0.00297438 0.000423 1.10502 1.29652 -1.48652 2650 
361 1 0.001268 0.00091828 0.003827 0.000116 0 2.23815 0 2650 
585 1 0.143349 0.000816303 0.004178 4.2e-05 0 2.2374 0 2650 
365 1 0.014662 0.00145549 0.003871 0.000656 0 2.23971 0 2650 
1208 1 0.0194753 0.00116722 0.00413822 0.000116 -3.89137 0.441907 1.61315 2650 
1606 1 0.035843 0.00109514 0.003632 0.000423 0 2.23961 0 2650 
2047 1 0.0422726 0.00126277 0.00402231 0.000423 -0.109297 2.17458 0.0815035 2650 
1764 1 0.1048 0.00138053 0.003935 0.000423 0 2.23961 0 2650 
648 1 0.133923 0.00164499 0.00426315 0.000423 0.0838685 2.08917 0.0275692 2650 
1816 1 0.147786 0.00162337 0.003726 0.000423 0 2.23961 0 2650 
2050 1 0.0503995 0.00229436 0.00387207 0.000423 -5.51865 -1.1639 -1.19652 2650 
980 1 0.06939 0.00212482 0.003991 0.000656 0 2.23968 0 2650 
824 1 0.126159 0.00179318 0.003789 0.000423 0 2.23948 0 2650 
1932 1 0.141016 0.00200292 0.003702 0.000656 0 2.23969 0 2650 
176 1 0.001438 0.000695424 0.00443 0.000116 0 2.23815 0 2650 
2182 1 0.0225708 0.000689036 0.00453958 4.2e-05 0.612096 1.88128 2.03166 2650 
1679 1 0.042503 0.00088122 0.005076 0.000116 0 2.23917 0 2650 
300 1 0.0526417 0.000495343 0.00439362 0.000423 1.26543 0.145525 1.79239 2650 
1277 1 0.075006 0.000707599 0.005099 0.000116 0 2.23825 0 2650 
1814 1 0.131875 0.000717256 0.004611 0.000116 0 2.23849 0 2650 
424 1 0.061715 0.00107018 0.005053 0.000423 0 2.23961 0 2650 
188 1 0.064849 0.00117189 0.005091 0.000423 0 2.23951 0 2650 
1635 1 0.088691 0.00113606 0.004515 0.000423 0 2.23951 0 2650 
2366 1 0.108993 0.00133798 0.004482 0.000423 0 2.23961 0 2650 
2258 1 0.115895 0.00148299 0.00444 0.000656 0 2.23969 0 2650 
573 1 0.117631 0.00124023 0.005072 4.2e-05 0 2.23579 0 2650 
1123 1 0.134858 0.00156675 0.004516 0.000423 0 2.23963 0 2650 
345 1 0.146378 0.00165728 0.004988 0.000423 0 2.23961 0 2650 
1883 1 0.158442 0.00138912 0.004964 0.000423 0 2.23951 0 2650 
1659 1 0.055425 0.000682979 0.005474 0.000116 0 2.23825 0 2650 
916 1 0.135978 0.000548677 0.00547336 0.000423 -1.264 0.226579 1.70038 2650 
1446 1 0.033447 0.00102703 0.005416 0.000116 0 2.23824 0 2650 
1806 1 0.067083 0.0017887 0.005229 0.000423 0 2.23948 0 2650 
1040 1 0.099414 0.0018415 0.005841 0.000423 0 2.23951 0 2650 
779 1 0.0596351 0.00322812 0.00587449 0.000423 3.85388 4.10676 0.835576 2650 
1819 1 0.038335 0.000748181 0.006672 0.000116 0 2.23815 0 2650 
1963 1 0.083996 0.000668435 0.006477 4.2e-05 0 2.23441 0 2650 
104 1 0.020242 0.00116137 0.006244 0.000423 0 2.23963 0 2650 
831 1 0.025684 0.00160545 0.00637 0.000423 0 2.23961 0 2650 
628 1 0.073589 0.00106758 0.006621 0.000423 0 2.23948 0 2650 
1627 1 0.076565 0.000949614 0.006259 0.000116 0 2.23815 0 2650 
218 1 0.080191 0.00104459 0.006156 0.000423 0 2.23961 0 2650 
1820 1 0.09489 0.00135425 0.006065 4.2e-05 0 2.23579 0 2650 
2111 1 0.136698 0.00131944 0.006144 0.000423 0 2.23965 0 2650 
1410 1 0.150839 0.00117539 0.006562 4.2e-05 0 2.23579 0 2650 
1852 1 0.154146 0.00103595 0.005953 0.000423 0 2.23963 0 2650 
881 1 0.115601 0.00210729 0.00648716 0.000656 0.207126 -0.626163 -2.2878 2650 
960 1 0.00685 0.000696703 0.006958 0.000116 0 2.23815 0 2650 
1810 1 0.043944 0.00073571 0.007253 0.000116 0 2.23815 0 2650 
1233 1 0.008632 0.0011383 0.007405 0.000423 0 2.23951 0 2650 
1909 1 0.018376 0.0014906 0.007196 0.000423 0 2.23963 0 2650 
2425 1 0.026329 0.00116356 0.006758 0.000116 0 2.23824 0 2650 
1531 1 0.029084 0.0014714 0.007413 0.000423 0 2.23961 0 2650 
1307 1 0.035736 0.00133207 0.006764 0.000116 0 2.23825 0 2650 
352 1 0.101624 0.0014279 0.00673571 0.000423 0.453302 1.57283 -1.58017 2650 
575 1 0.113515 0.00115337 0.006827 0.000423 0 2.23961 0 2650 
2128 1 0.115633 0.00123659 0.006908 0.000116 0 2.23849 0 2650 
1387 1 0.140551 0.00109222 0.007306 0.000423 0 2.23948 0 2650 
2234 1 0.053132 0.00183232 0.007104 0.000423 0 2.23965 0 2650 
2305 1 0.06562 0.000333534 0.00811946 0.000116 0 0.72493 7.72493 2650 
200 1 0.105574 0.000690596 0.00806729 0.000423 0.247037 0.673181 -0.558684 2650 
554 1 0.003153 0.00122458 0.007568 4.2e-05 0 2.23579 0 2650 
2385 1 0.0279847 0.00149093 0.00784918 0.000423 -0.879729 2.50774 -2.04498 2650 
917 1 0.028712 0.00124554 0.008079 0.000116 0 2.23849 0 2650 
18 1 0.083283 0.00121804 0.007617 0.000116 0 2.23914 0 2650 
1960 1 0.094905 0.00172352 0.008097 0.000423 0 2.23963 0 2650 
2093 1 0.133208 0.00103847 0.007989 0.000423 0 2.23948 0 2650 
1159 1 0.150815 0.00146148 0.007685 0.000423 0 2.23963 0 2650 
706 1 0.0610915 0.00209646 0.00779906 0.000423 0.265473 2.54909 -0.409458 2650 
5 1 0.137396 0.000805093 0.008337 0.000116 0 2.23918 0 2650 
1173 1 0.152246 0.00093433 0.009042 4.2e-05 0 2.23441 0 2650 
2264 1 0.159154 0.000813087 0.008714 0.000116 0 2.23815 0 2650 
1517 1 0.004885 0.00165857 0.008365 0.000423 0 2.23963 0 2650 
967 1 0.045216 0.00106188 0.009072 0.000423 0 2.23965 0 2650 
337 1 0.078317 0.0013051 0.00903 0.000656 0 2.23968 0 2650 
1946 1 0.09912 0.000971933 0.009084 4.2e-05 0 2.23579 0 2650 
508 1 0.101088 0.00142602 0.00860519 0.000656 -0.0949987 2.1825 0.331157 2650 
552 1 0.105159 0.00138426 0.0090055 0.000423 -0.505712 0.411121 1.14369 2650 
2121 1 0.1556 0.0011215 0.008517 4.2e-05 0 2.23729 0 2650 
366 1 0.039524 0.00184317 0.008361 0.000423 0 2.23961 0 2650 
1353 1 0.135932 0.00190753 0.00907607 0.000656 0.000357376 2.23698 0.000135862 2650 
157 1 0.135144 0.0031257 0.00877639 4.2e-05 -1.36172 3.32842 -0.51768 2650 
165 1 0.041117 0.000920518 0.009537 0.000116 0 2.23815 0 2650 
2015 1 0.098067 0.000823006 0.009838 0.000116 0 2.23918 0 2650 
605 1 0.119613 0.000736476 0.00961419 0.000116 0 2.5505 -4.85679 2650 
784 1 0.123497 0.000912611 0.00974572 0.000423 1.45671 1.77523 -0.546539 2650 
1194 1 0.138262 0.000813511 0.009231 0.000116 0 2.23849 0 2650 
1881 1 0.119492 0.00160745 0.009255 0.000656 0 2.23968 0 2650 
1688 1 0.141376 0.00130449 0.009894 0.000656 0 2.23979 0 2650 
1412 1 0.145768 0.00118882 0.009397 0.000116 0 2.23825 0 2650 
404 1 0.117705 0.00182677 0.009716 0.000423 0 2.23948 0 2650 
2197 1 0.0291421 0.000670433 0.0105397 0.000423 1.04788 1.01169 2.43586 2650 
2145 1 0.121474 0.000783712 0.0105046 0.000423 -1.86021 0.787823 0.697926 2650 
623 1 0.017229 0.00163771 0.010022 0.000423 0 2.23951 0 2650 
1163 1 0.038505 0.00123119 0.010104 4.2e-05 0 2.23441 0 2650 
691 1 0.065911 0.00116293 0.010344 0.000423 0 2.23951 0 2650 
1455 1 0.069014 0.00133041 0.010395 0.000656 0 2.23979 0 2650 
59 1 0.080657 0.00137229 0.010435 0.000656 0 2.23968 0 2650 
177 1 0.102003 0.00131617 0.01063 0.000423 0 2.23948 0 2650 
1418 1 0.11782 0.00103288 0.010281 0.000116 0 2.23849 0 2650 
1335 1 0.129495 0.00131046 0.009967 0.000116 0 2.23849 0 2650 
212 1 0.148551 0.00103659 0.010262 0.000423 0 2.23961 0 2650 
866 1 0.150967 0.00161507 0.010212 0.000423 0 2.23965 0 2650 
2294 1 0.067079 0.00178046 0.010632 0.000423 0 2.23961 0 2650 
2373 1 0.056707 0.000739411 0.011468 4.2e-05 0 2.23579 0 2650 
1548 1 0.098569 0.000925953 0.010796 0.000116 0 2.23815 0 2650 
1842 1 0.128813 0.000869041 0.011369 0.000116 0 2.23815 0 2650 
1717 1 0.139512 0.000863702 0.011002 4.2e-05 0 2.23418 0 2650 
1424 1 0.018389 0.00158529 0.010884 0.000423 0 2.23961 0 2650 
859 1 0.020765 0.0014154 0.011218 0.000423 0 2.23961 0 2650 
2442 1 0.061003 0.00133905 0.011176 0.000116 0 2.23815 0 2650 
1984 1 0.071545 0.00124311 0.010928 0.000116 -9.12072 2.12072 0 2650 
278 1 0.078922 0.00142462 0.011437 0.000116 0 2.23849 0 2650 
2046 1 0.131403 0.00129209 0.0108021 0.000116 -0.178249 1.93796 -0.108222 2650 
1134 1 0.141049 0.00111723 0.010696 4.2e-05 0 2.23441 0 2650 
972 1 0.159836 0.00118344 0.011222 0.000423 0 2.23961 0 2650 
1886 1 0.024919 0.000689603 0.01171 0.000116 0 2.23914 0 2650 
2390 1 0.033791 0.000854332 0.012191 0.000116 0 2.23815 0 2650 
1733 1 0.093161 0.000755854 0.012041 0.000116 0 2.23815 0 2650 
1899 1 0.0950819 0.000802908 0.0117615 0.000116 1.87708 1.92082 0.258428 2650 
650 1 0.133227 0.000266386 0.0119097 4.2e-05 3.75537 -0.654127 2.28004 2650 
460 1 0.003722 0.00144486 0.011587 0.000423 0 2.23965 0 2650 
219 1 0.04317 0.00106472 0.011985 0.000116 0 2.23815 0 2650 
1236 1 0.0936599 0.00144531 0.0115694 0.000423 -0.0535116 2.20749 0.000813506 2650 
2205 1 0.125225 0.00140081 0.012172 0.000116 0 2.23824 0 2650 
966 1 0.140948 0.00147084 0.011888 0.000116 0 2.23825 0 2650 
1112 1 0.151852 0.00133314 0.012176 4.2e-05 0 2.2374 0 2650 
1542 1 0.041337 0.00178462 0.011979 0.000423 0 2.23961 0 2650 
67 1 0.096194 0.00202122 0.011854 0.000656 0 2.23979 0 2650 
2067 1 0.141648 0.00181015 0.011964 0.000423 0 2.23951 0 2650 
2040 1 0.0709135 0.00253393 0.0119184 0.000116 -0.83955 4.01824 -1.40681 2650 
197 1 0.001978 0.000823937 0.012413 4.2e-05 0 2.23729 0 2650 
1205 1 0.074386 0.000717765 0.012556 0.000116 0 2.23918 0 2650 
2175 1 0.099879 0.000886946 0.012522 0.000116 0 2.23815 0 2650 
1598 1 0.140638 0.000714314 0.012616 0.000116 0 2.23825 0 2650 
2495 1 0.004327 0.00132326 0.013029 0.000423 0 2.23961 0 2650 
895 1 0.045265 0.00143948 0.012269 0.000656 0 2.23968 0 2650 
489 1 0.047522 0.00103752 0.012445 0.000423 0 2.23951 0 2650 
597 1 0.052746 0.00152892 0.012275 0.000423 0 2.23948 0 2650 
738 1 0.077063 0.00129351 0.012617 0.000423 0 2.23963 0 2650 
294 1 0.083181 0.0012781 0.012766 0.000423 0 2.23948 0 2650 
794 1 0.101794 0.00130449 0.012964 0.000656 0 2.23979 0 2650 
723 1 0.135627 0.00139948 0.012992 0.000116 0 2.23815 0 2650 
1396 1 0.149437 0.00180096 0.012358 0.000423 0 2.23965 0 2650 
265 1 0.051603 0.000867235 0.013845 0.000116 0 2.23849 0 2650 
459 1 0.065523 0.000862326 0.013362 0.000116 0 2.23815 0 2650 
1241 1 0.080082 0.000709838 0.01365 0.000116 0 2.23825 0 2650 
1348 1 0.132843 0.000778581 0.013729 0.000116 0 2.23824 0 2650 
1719 1 0.032653 0.0011457 0.013588 0.000423 0 2.23963 0 2650 
954 1 0.0719283 0.00133024 0.0136189 0.000656 0.00469377 2.2299 0.00786524 2650 
2302 1 0.075182 0.00117 0.013287 0.000423 0 2.23961 0 2650 
2436 1 0.084941 0.00123706 0.013757 0.000116 0 2.23815 0 2650 
1385 1 0.09883 0.000939734 0.013076 0.000116 0 2.23824 0 2650 
1833 1 0.115349 0.00163417 0.013093 0.000423 0 2.23948 0 2650 
1601 1 0.129629 0.0011421 0.013243 0.000116 0 2.23815 0 2650 
1649 1 0.14757 0.00167201 0.013797 0.000423 0 2.23963 0 2650 
1284 1 0.020685 0.00180863 0.013078 0.000423 0 2.23963 0 2650 
2243 1 0.046104 0.00213058 0.013449 0.000656 0 2.23969 0 2650 
2120 1 0.056455 0.00175102 0.013138 0.000423 0 2.23961 0 2650 
1535 1 0.114996 0.0037377 0.0131666 0.000423 -0.281499 -3.14964 3.10928 2650 
152 1 0.048531 0.000703038 0.014359 0.000116 0 2.23914 0 2650 
1931 1 0.102655 0.000605263 0.014112 4.2e-05 0 2.23579 0 2650 
630 1 0.10425 0.000859157 0.014428 0.000116 0 2.23824 0 2650 
790 1 0.126922 0.000709755 0.01428 0.000116 0 2.23914 0 2650 
2097 1 0.157939 0.000894612 0.014523 4.2e-05 0 2.2374 0 2650 
1801 1 0.010927 0.00140127 0.014115 0.000423 0 2.23948 0 2650 
27 1 0.030797 0.000953822 0.014592 0.000116 0 2.23914 0 2650 
48 1 0.035058 0.000957351 0.013916 0.000116 0 2.23917 0 2650 
610 1 0.039545 0.00151901 0.013854 0.000423 0 2.23951 0 2650 
1452 1 0.057611 0.00111748 0.014495 0.000116 0 2.23815 0 2650 
1135 1 0.075772 0.00128481 0.014316 0.000423 0 2.23948 0 2650 
1458 1 0.142812 0.00130761 0.014111 0.000116 0 2.23914 0 2650 
1257 1 0.1497 0.00137619 0.014178 0.000116 0 2.23824 0 2650 
412 1 0.055062 0.00179709 0.014355 0.000423 0 2.23961 0 2650 
1002 1 0.008661 0.000732513 0.015305 0.000116 0 2.23815 0 2650 
1998 1 0.04633 0.000698649 0.01483 4.2e-05 0 2.23729 0 2650 
1308 1 0.051143 0.000816289 0.015138 0.000116 0 2.23918 0 2650 
724 1 0.051952 0.000891126 0.015061 0.000116 0 2.23914 0 2650 
1484 1 0.053459 0.000732513 0.015164 0.000116 0 2.23815 0 2650 
2042 1 0.087817 0.000767045 0.015033 0.000116 0 2.23815 0 2650 
1790 1 0.014573 0.00145315 0.015413 0.000116 0 2.23914 0 2650 
616 1 0.060796 0.000992139 0.014808 0.000116 0 2.23815 0 2650 
1160 1 0.068631 0.0011271 0.014917 0.000423 0 2.23951 0 2650 
1207 1 0.0965957 0.00148727 0.0152903 0.000656 -0.0548809 2.24356 0.0566914 2650 
211 1 0.124407 0.00170399 0.0149 0.000423 0 2.23961 0 2650 
2335 1 0.133151 0.00148227 0.01467 0.000423 0 2.23961 0 2650 
146 1 0.156933 0.00186535 0.015215 0.000656 0 2.23971 0 2650 
64 1 0.050143 0.000808611 0.015685 0.000116 0 2.23815 0 2650 
1673 1 0.014714 0.00148131 0.015963 0.000423 0 2.23961 0 2650 
711 1 0.0251757 0.00126973 0.0161148 0.000423 -0.046851 2.25189 0.0392278 2650 
934 1 0.0258713 0.00113974 0.0155323 0.000423 0.0468657 2.22742 -0.0392401 2650 
314 1 0.09027 0.00134801 0.016032 0.000116 0 2.23815 0 2650 
2177 1 0.11132 0.00105096 0.015853 0.000423 0 2.23951 0 2650 
418 1 0.149012 0.00112262 0.015862 0.000423 0 2.23951 0 2650 
2091 1 0.104905 0.00200139 0.016209 0.000656 0 2.2398 0 2650 
783 1 0.124383 0.00181255 0.01615 0.000656 0 2.23969 0 2650 
2246 1 0.079128 0.000634919 0.016383 4.2e-05 0 2.23441 0 2650 
587 1 0.04028 0.0012896 0.016356 4.2e-05 0 2.23441 0 2650 
1602 1 0.042847 0.00136936 0.016354 0.000116 0 2.23917 0 2650 
57 1 0.057367 0.00105674 0.016604 0.000423 0 2.23961 0 2650 
1809 1 0.084202 0.00148803 0.016295 0.000423 0 2.23961 0 2650 
1255 1 0.104115 0.00139679 0.0169536 0.000423 2.58578 1.74351 -0.774355 2650 
1979 1 0.148755 0.0016336 0.016686 0.000423 0 2.23961 0 2650 
1440 1 0.051411 0.00196485 0.016331 0.000656 0 2.23969 0 2650 
2192 1 0.0295342 0.0042247 0.0168117 0.000656 -6.87493 5.02947 -1.31107 2650 
1739 1 0.08215 0.000666398 0.01734 4.2e-05 0 2.2374 0 2650 
290 1 0.090462 0.000874476 0.017451 4.2e-05 0 2.2374 0 2650 
753 1 0.106579 0.000936628 0.017074 0.000116 0 2.23849 0 2650 
269 1 0.115081 0.00081575 0.017289 0.000116 0 2.23849 0 2650 
1589 1 0.13054 0.00090585 0.01743 0.000116 0 2.23917 0 2650 
582 1 0.145769 0.000709862 0.0171644 0.000423 -1.37323 0.61928 -0.0583622 2650 
88 1 0.148022 0.00063328 0.0172602 0.000423 1.60152 0.903831 0.0680646 2650 
1439 1 0.160999 0.000725996 0.017183 4.2e-05 0 2.23579 0 2650 
413 1 0.0167557 0.00145331 0.0170094 0.000656 0.33165 1.88219 -0.708339 2650 
198 1 0.073518 0.001664 0.017315 0.000423 0 2.23961 0 2650 
505 1 0.079356 0.00109482 0.017099 0.000116 0 2.23825 0 2650 
2474 1 0.083353 0.00103886 0.017263 0.000116 0 2.23825 0 2650 
1537 1 0.088848 0.001457 0.017169 0.000423 0 2.23963 0 2650 
897 1 0.133624 0.00140837 0.017326 0.000116 0 2.23914 0 2650 
922 1 0.101295 0.00414501 0.0171141 0.000423 -0.158534 4.66164 -0.876317 2650 
1481 1 0.103861 0.00083619 0.0180222 0.000116 0.99118 2.16272 0.844179 2650 
943 1 0.039469 0.00151459 0.018546 0.000116 0 2.23815 0 2650 
2486 1 0.042163 0.00151043 0.018514 0.000423 0 2.23961 0 2650 
1887 1 0.063275 0.00167201 0.018064 0.000423 0 2.23963 0 2650 
1304 1 0.082867 0.00151229 0.018006 0.000423 0 2.23951 0 2650 
1211 1 0.099148 0.0011269 0.018421 0.000116 0 2.23849 0 2650 
359 1 0.125342 0.00112391 0.018465 0.000116 0 2.23825 0 2650 
1140 1 0.138498 0.00122993 0.0179916 0.000423 0.0665955 2.2499 0.235381 2650 
396 1 0.0951491 0.00438203 0.0185402 4.2e-05 2.60542 -4.90709 13.1708 2650 
770 1 0.087399 0.000921477 0.018895 0.000116 0 2.23815 0 2650 
217 1 0.11624 0.000937198 0.01924 0.000116 0 2.23917 0 2650 
72 1 0.01798 0.00106284 0.019191 0.000116 0 2.23824 0 2650 
1129 1 0.030015 0.00138158 0.019214 0.000116 0 2.23815 0 2650 
1058 1 0.033484 0.00106248 0.018874 0.000116 0 2.23815 0 2650 
1271 1 0.034605 0.00169817 0.019326 0.000423 0 2.23951 0 2650 
976 1 0.091588 0.00105005 0.019221 0.000116 0 2.23825 0 2650 
1782 1 0.109585 0.0015181 0.018854 0.000423 0 2.23961 0 2650 
103 1 0.134585 0.00151192 0.01865 0.000116 0 2.23849 0 2650 
2290 1 0.058947 0.00202052 0.018645 0.000656 0 2.23969 0 2650 
1989 1 0.0461273 0.00460592 0.0192349 0.000656 10.0875 0.967867 1.1547 2650 
600 1 0.0154497 0.000726415 0.0197988 0.000423 -1.33476 0.616903 2.85079 2650 
1941 1 0.102976 0.000835469 0.019466 0.000116 0 2.23815 0 2650 
467 1 0.008277 0.00164513 0.020141 0.000423 0 2.23963 0 2650 
1380 1 0.012312 0.0012669 0.019777 0.000423 0 2.23948 0 2650 
327 1 0.019879 0.00115465 0.020058 0.000423 0 2.23963 0 2650 
491 1 0.037832 0.0012985 0.020112 0.000116 0 2.23825 0 2650 
2453 1 0.070332 0.00151491 0.019926 0.000116 0 2.23917 0 2650 
255 1 0.111674 0.00141022 0.019727 0.000423 0 2.23948 0 2650 
635 1 0.124633 0.0015181 0.019499 0.000423 0 2.23961 0 2650 
1191 1 0.147173 0.00143685 0.019927 0.000423 0 2.23963 0 2650 
863 1 0.056957 0.00180768 0.019571 0.000423 0 2.23965 0 2650 
2354 1 0.014959 0.000707599 0.020276 0.000116 0 2.23825 0 2650 
2245 1 0.084222 0.000817234 0.020706 0.000116 0 2.23914 0 2650 
2433 1 0.120631 0.000886648 0.020189 0.000116 0 2.23914 0 2650 
1493 1 0.014484 0.00104872 0.020771 0.000423 0 2.23951 0 2650 
1217 1 0.018898 0.00103976 0.020259 0.000423 0 2.23951 0 2650 
809 1 0.022569 0.00125068 0.020657 0.000116 0 2.23917 0 2650 
37 1 0.034376 0.00113894 0.020581 0.000116 0 2.23824 0 2650 
2085 1 0.051831 0.00148741 0.02068 0.000423 0 2.23965 0 2650 
2372 1 0.083067 0.00117007 0.020627 0.000116 0 2.23917 0 2650 
1849 1 0.097369 0.00157218 0.02094 0.000423 0 2.23961 0 2650 
888 1 0.136044 0.00120456 0.020613 0.000423 0 2.23961 0 2650 
1861 1 0.14233 0.00106646 0.020248 0.000116 0 2.23849 0 2650 
501 1 0.149638 0.00115777 0.020687 4.2e-05 0 2.23441 0 2650 
231 1 0.151138 0.00128903 0.020606 0.000423 0 2.23963 0 2650 
1067 1 0.0165783 0.00205491 0.0206457 0.000423 -0.390084 2.45924 -0.821365 2650 
1065 1 0.027926 0.00175135 0.020581 0.000423 0 2.23961 0 2650 
1643 1 0.072452 0.00175841 0.020494 0.000423 0 2.23965 0 2650 
2139 1 0.0969328 0.00397603 0.0203395 0.000423 -3.3797 -1.7183 1.96296 2650 
2423 1 0.0357879 0.000623302 0.021064 0.000423 -0.856805 1.52038 2.07117 2650 
2172 1 0.121251 0.000788888 0.021576 0.000116 0 2.23849 0 2650 
111 1 0.145579 0.000681441 0.021193 0.000116 0 2.23849 0 2650 
2451 1 0.048261 0.00113734 0.021077 4.2e-05 0 2.23441 0 2650 
15 1 0.048347 0.00147163 0.021217 0.000116 0 2.23849 0 2650 
746 1 0.081277 0.00106198 0.020981 0.000116 0 2.23849 0 2650 
429 1 0.08347 0.00115018 0.021246 0.000423 0 2.23963 0 2650 
1292 1 0.094998 0.00106802 0.021521 0.000116 0 2.23914 0 2650 
1669 1 0.13613 0.00110247 0.02153 0.000423 0 2.23951 0 2650 
2349 1 0.144223 0.00127303 0.021596 0.000423 0 2.23961 0 2650 
2094 1 0.153133 0.00183232 0.021671 0.000423 0 2.23965 0 2650 
1388 1 0.0453039 0.000431422 0.0218933 0.000116 5.37708 0.826088 -1.37295 2650 
414 1 0.066167 0.000704719 0.021955 0.000116 0 2.23824 0 2650 
2096 1 0.096139 0.000856576 0.022521 4.2e-05 0 2.2374 0 2650 
2123 1 0.020135 0.00124615 0.022133 0.000423 0 2.23961 0 2650 
751 1 0.020676 0.00107318 0.022507 0.000116 0 2.23849 0 2650 
2210 1 0.034314 0.00107155 0.022213 0.000116 0 2.23917 0 2650 
2416 1 0.041036 0.00134021 0.021765 0.000423 0 2.23961 0 2650 
674 1 0.0429186 0.00139189 0.0219171 0.000656 -0.0180664 2.22303 -0.0263137 2650 
1243 1 0.061472 0.00141462 0.021782 4.2e-05 0 2.23579 0 2650 
493 1 0.126871 0.00144063 0.022504 0.000423 0 2.23951 0 2650 
1994 1 0.142649 0.00156514 0.022027 0.000423 0 2.23961 0 2650 
1560 1 0.145212 0.00165538 0.022301 0.000423 0 2.23965 0 2650 
249 1 0.022254 0.000692633 0.0233 0.000116 0 2.23849 0 2650 
2223 1 0.0634339 0.000410146 0.0226945 0.000423 -0.649203 1.85676 -1.22138 2650 
2270 1 0.000832 0.00121193 0.023295 0.000423 0 2.23965 0 2650 
38 1 0.0176723 0.00154891 0.0229494 0.000423 0.390905 2.01984 0.823094 2650 
993 1 0.028135 0.000960805 0.023309 0.000116 0 2.23815 0 2650 
1986 1 0.066282 0.00133173 0.022706 4.2e-05 0 2.23441 0 2650 
2314 1 0.076991 0.00151416 0.022691 0.000116 0 2.23849 0 2650 
1246 1 0.080504 0.00144622 0.023289 0.000116 0 2.23825 0 2650 
1504 1 0.095192 0.00120449 0.022785 0.000116 0 2.23825 0 2650 
1895 1 0.107656 0.00139892 0.023279 4.2e-05 0 2.23729 0 2650 
1118 1 0.119151 0.00128583 0.022741 0.000116 0 2.23849 0 2650 
1642 1 0.137147 0.00120521 0.023316 0.000423 0 2.23965 0 2650 
646 1 0.140105 0.00139269 0.023238 0.000423 0 2.23961 0 2650 
82 1 0.154961 0.00133089 0.023145 0.000423 0 2.23951 0 2650 
923 1 0.161252 0.00117615 0.023014 0.000116 0 2.23849 0 2650 
446 1 0.101555 0.000766187 0.023987 4.2e-05 0 2.2376 0 2650 
400 1 0.131378 0.000723975 0.023773 4.2e-05 0 2.23441 0 2650 
2115 1 0.016765 0.00113222 0.02409 0.000116 0 2.23824 0 2650 
518 1 0.03397 0.00122924 0.023721 0.000116 0 2.23914 0 2650 
1937 1 0.043278 0.00128442 0.023552 0.000116 0 2.23824 0 2650 
1263 1 0.073086 0.00105003 0.023941 0.000423 0 2.23961 0 2650 
1456 1 0.076694 0.0014873 0.023974 0.000116 0 2.23849 0 2650 
879 1 0.116971 0.00140214 0.023556 4.2e-05 0 2.23418 0 2650 
1812 1 0.145705 0.00127112 0.02396 0.000423 0 2.23963 0 2650 
1153 1 0.0213163 0.0035803 0.0233076 0.000116 -10.2965 11.8865 -5.41198 2650 
2136 1 0.002327 0.000694872 0.024891 0.000116 0 2.23849 0 2650 
2381 1 0.054499 0.000788888 0.024569 0.000116 0 2.23849 0 2650 
2056 1 0.156389 0.000353235 0.0243998 0.000116 0.234862 1.0986 -3.43682 2650 
1583 1 0.0231744 0.00107588 0.0242937 0.000423 -0.153549 2.05382 -0.0767161 2650 
339 1 0.035201 0.00126568 0.024381 0.000423 0 2.23965 0 2650 
617 1 0.041439 0.00167354 0.024608 0.000423 0 2.23951 0 2650 
958 1 0.054851 0.000982261 0.024231 0.000116 0 2.23824 0 2650 
1056 1 0.129981 0.00140752 0.024264 0.000656 0 2.23979 0 2650 
2269 1 0.138223 0.00153154 0.024436 0.000423 0 2.23961 0 2650 
828 1 0.159183 0.000991887 0.024535 0.000116 0 2.23914 0 2650 
1228 1 0.0499284 0.00184579 0.0250168 0.000116 -10.5319 4.07973 16.2441 2650 
47 1 0.085962 0.00185213 0.024809 0.000423 0 2.23961 0 2650 
544 1 0.096732 0.00195365 0.024122 0.000656 0 2.23969 0 2650 
1225 1 0.148005 0.00211586 0.024592 0.000656 0 2.23968 0 2650 
2375 1 0.039706 0.000896893 0.024993 0.000116 0 2.23917 0 2650 
2356 1 0.082785 0.000801896 0.025415 0.000116 0 2.23815 0 2650 
331 1 0.008847 0.00148363 0.025112 0.000116 0 2.23824 0 2650 
1935 1 0.054785 0.00150244 0.025329 0.000116 0 2.23815 0 2650 
1374 1 0.0632971 0.0012637 0.0253375 0.000423 -0.200178 2.24298 0.113202 2650 
437 1 0.068747 0.00166061 0.024959 0.000656 0 2.23979 0 2650 
1104 1 0.096386 0.00161889 0.025692 0.000423 0 2.23961 0 2650 
1745 1 0.10678 0.00119205 0.025316 0.000423 0 2.23951 0 2650 
120 1 0.124076 0.00113606 0.025565 0.000423 0 2.23951 0 2650 
2009 1 0.136828 0.00133879 0.0252515 0.000656 0.00332919 2.2293 -0.0206489 2650 
2499 1 0.137558 0.00114628 0.025442 4.2e-05 0 2.23441 0 2650 
719 1 0.0648069 0.00176943 0.0251833 0.000656 0.244649 2.443 0.295326 2650 
2405 1 0.119159 0.00202602 0.0253515 0.000423 0 3.9307 -4.21492 2650 
2409 1 0.0453996 0.000636527 0.0262687 0.000116 0.231174 1.28515 -0.928459 2650 
2469 1 0.071532 0.000680647 0.025811 0.000116 0 2.23914 0 2650 
2283 1 0.075251 0.00123834 0.026091 0.000116 0 2.23815 0 2650 
930 1 0.077129 0.00131654 0.025773 0.000423 0 2.23961 0 2650 
1319 1 0.091555 0.00106026 0.0258 0.000423 0 2.23961 0 2650 
721 1 0.100575 0.00167914 0.0260613 0.000656 -6.17777 2.74345 -3.56567 2650 
130 1 0.115638 0.00100017 0.026445 0.000116 0 2.23824 0 2650 
2126 1 0.133494 0.000985348 0.025818 4.2e-05 0 2.23579 0 2650 
1942 1 0.145658 0.000956283 0.025799 4.2e-05 0 2.23579 0 2650 
631 1 0.153063 0.00145277 0.025957 0.000423 0 2.23948 0 2650 
86 1 0.158832 0.00110832 0.026032 0.000116 0 2.23914 0 2650 
1025 1 0.086945 0.00178535 0.025794 0.000656 0 2.23969 0 2650 
23 1 0.0927171 0.00317818 0.0256875 0.000423 0.864401 5.42308 -3.15944 2650 
2030 1 0.02889 0.000816284 0.02685 0.000116 0 2.23815 0 2650 
817 1 0.075874 0.000718148 0.026873 0.000116 0 2.23824 0 2650 
1490 1 0.010825 0.00150533 0.026744 0.000423 0 2.23965 0 2650 
2149 1 0.020829 0.00104787 0.02721 0.000116 0 2.23914 0 2650 
1340 1 0.0446675 0.00123864 0.0265233 0.000656 -4.46023 1.81539 -3.18436 2650 
1638 1 0.051593 0.00170024 0.026922 0.000656 0 2.23969 0 2650 
1777 1 0.057211 0.00143038 0.026905 0.000423 0 2.23948 0 2650 
1117 1 0.089455 0.00132774 0.026925 0.000423 0 2.23961 0 2650 
2262 1 0.110514 0.0014714 0.026869 0.000423 0 2.23961 0 2650 
977 1 0.13334 0.00141441 0.026793 4.2e-05 0 2.23441 0 2650 
428 1 0.156239 0.00149856 0.0265937 0.000423 -0.00616357 2.16611 0.0901936 2650 
70 1 0.049569 0.00174497 0.027006 0.000423 0 2.23965 0 2650 
458 1 0.023778 0.000787534 0.02804 0.000116 0 2.23824 0 2650 
441 1 0.136488 0.000477933 0.0273644 0.000116 -0.601663 1.16007 3.73175 2650 
1195 1 0.159417 0.000885662 0.027491 4.2e-05 0 2.2374 0 2650 
1722 1 0.015485 0.00112011 0.02792 0.000423 0 2.23965 0 2650 
266 1 0.0773423 0.0011393 0.0274837 0.000423 -8.45852 1.65365 -0.560097 2650 
1929 1 0.092846 0.00149099 0.027856 0.000116 0 2.23825 0 2650 
571 1 0.123616 0.00118472 0.027453 0.000423 0 2.23961 0 2650 
1400 1 0.131684 0.0015011 0.027456 0.000423 0 2.23951 0 2650 
2107 1 0.138375 0.00136276 0.027461 0.000116 0 2.23824 0 2650 
1086 1 0.110601 0.00178528 0.027997 0.000423 0 2.23965 0 2650 
1076 1 0.006655 0.000654315 0.028645 4.2e-05 0 2.23763 0 2650 
1662 1 0.009982 0.000796141 0.028422 0.000116 0 2.23815 0 2650 
2059 1 0.066155 0.000623747 0.028516 4.2e-05 0 2.23441 0 2650 
1320 1 0.088834 0.000890493 0.028395 0.000116 0 2.23824 0 2650 
1562 1 0.106581 0.000897768 0.028147 4.2e-05 0 2.23729 0 2650 
2058 1 0.131881 0.00044086 0.0284367 0.000423 0.102184 0.31798 -2.00204 2650 
567 1 0.012167 0.00134486 0.028577 0.000116 0 2.23824 0 2650 
1740 1 0.044597 0.00117886 0.028771 0.000116 0 2.23815 0 2650 
2359 1 0.065394 0.00137101 0.028807 0.000656 0 2.23969 0 2650 
261 1 0.068779 0.00111142 0.028837 0.000423 0 2.23951 0 2650 
318 1 0.077656 0.00102375 0.0283262 0.000423 -0.84298 1.90029 -0.344721 2650 
882 1 0.08832 0.00100109 0.028089 0.000116 0 2.23815 0 2650 
944 1 0.0568133 0.000710638 0.0290268 0.000116 4.01799 1.62777 -3.43374 2650 
682 1 0.088745 0.000703123 0.029072 0.000116 0 2.23825 0 2650 
2494 1 0.112264 0.000683274 0.029261 0.000116 0 2.23815 0 2650 
271 1 0.023654 0.00100602 0.02955 0.000116 0 2.23849 0 2650 
66 1 0.028179 0.0013495 0.028997 0.000423 0 2.23963 0 2650 
956 1 0.077236 0.00138597 0.029149 0.000423 0 2.23961 0 2650 
1470 1 0.12141 0.000973836 0.029441 4.2e-05 0 2.23729 0 2650 
1622 1 0.148534 0.00118782 0.028927 0.000116 0 2.23815 0 2650 
431 1 0.152539 0.00138192 0.029046 0.000656 0 2.23979 0 2650 
1930 1 0.155149 0.00110153 0.029092 0.000116 0 2.23825 0 2650 
1915 1 0.030283 0.00211938 0.029516 0.000656 0 2.23969 0 2650 
1763 1 0.047656 0.00175711 0.029583 0.000423 0 2.23963 0 2650 
2480 1 0.014403 0.001035 0.029889 0.000423 0 2.23965 0 2650 
709 1 0.0731 0.00136781 0.030266 4.2e-05 0 2.23441 0 2650 
1177 1 0.0789304 0.00146215 0.0298642 0.000423 0.940171 1.44594 1.16025 2650 
2170 1 0.091337 0.00171496 0.030379 0.000656 0 2.23968 0 2650 
71 1 0.106422 0.00112202 0.030376 0.000423 0 2.23961 0 2650 
620 1 0.130104 0.00103528 0.029694 0.000423 0 2.23951 0 2650 
1489 1 0.085601 0.00182493 0.029983 0.000423 0 2.23961 0 2650 
1987 1 0.071649 0.000723267 0.030617 0.000116 0 2.23825 0 2650 