ITEM: TIMESTEP
1
ITEM: NUMBER OF ATOMS
2500
ITEM: BOX BOUNDS ff ff ff
-0.005905 0.167905 
-0.000656 0.011154 
-0.005905 0.167905 
ITEM: ATOMS id type x y z radius vx vy vz
1 1 0.109347 0.002036 0.135576 0.000116 0.000000 -7.000000 0.000000 
2 1 0.007784 0.002630 0.054153 0.000116 0.000000 -7.000000 0.000000 
3 1 0.110256 0.004202 0.091813 0.000423 0.000000 -7.000000 0.000000 
4 1 0.147369 0.002084 0.041458 0.000423 0.000000 -7.000000 0.000000 
5 1 0.137396 0.004197 0.008337 0.000116 0.000000 -7.000000 0.000000 
6 1 0.052752 0.003090 0.155032 0.000656 0.000000 -7.000000 0.000000 
7 1 0.050942 0.004465 0.112449 0.000423 0.000000 -7.000000 0.000000 
8 1 0.056186 0.001982 0.073283 0.000656 0.000000 -7.000000 0.000000 
9 1 0.152512 0.003138 0.036201 0.000423 0.000000 -7.000000 0.000000 
10 1 0.136633 0.004531 0.100242 0.000042 0.000000 -7.000000 0.000000 
11 1 0.118443 0.004256 0.121265 0.000116 0.000000 -7.000000 0.000000 
12 1 0.064249 0.001974 0.126500 0.000423 0.000000 -7.000000 0.000000 
13 1 0.113127 0.003984 0.055138 0.000116 0.000000 -7.000000 0.000000 
14 1 0.089400 0.002483 0.042363 0.000042 0.000000 -7.000000 0.000000 
15 1 0.048347 0.002112 0.021217 0.000116 0.000000 -7.000000 0.000000 
16 1 0.082222 0.003215 0.119539 0.000423 0.000000 -7.000000 0.000000 
17 1 0.009591 0.004487 0.090616 0.000656 0.000000 -7.000000 0.000000 
18 1 0.083283 0.002906 0.007617 0.000116 0.000000 -7.000000 0.000000 
19 1 0.139416 0.002425 0.145556 0.000116 0.000000 -7.000000 0.000000 
20 1 0.045024 0.003919 0.111362 0.000423 0.000000 -7.000000 0.000000 
21 1 0.079138 0.002695 0.124319 0.000042 0.000000 -7.000000 0.000000 
22 1 0.150948 0.004580 0.063841 0.000423 0.000000 -7.000000 0.000000 
23 1 0.092209 0.002150 0.027369 0.000423 0.000000 -7.000000 0.000000 
24 1 0.131062 0.004574 0.071230 0.000423 0.000000 -7.000000 0.000000 
25 1 0.006033 0.003152 0.065440 0.000116 0.000000 -7.000000 0.000000 
26 1 0.088426 0.002917 0.088597 0.000116 0.000000 -7.000000 0.000000 
27 1 0.030797 0.003732 0.014592 0.000116 0.000000 -7.000000 0.000000 
28 1 0.105360 0.002478 0.051041 0.000116 0.000000 -7.000000 0.000000 
29 1 0.094019 0.004150 0.129854 0.000423 0.000000 -7.000000 0.000000 
30 1 0.142625 0.003389 0.137027 0.000116 0.000000 -7.000000 0.000000 
31 1 0.111438 0.002367 0.048564 0.000423 0.000000 -7.000000 0.000000 
32 1 0.137044 0.003143 0.098481 0.000116 0.000000 -7.000000 0.000000 
33 1 0.097990 0.003927 0.141629 0.000423 0.000000 -7.000000 0.000000 
34 1 0.029924 0.002113 0.050042 0.000656 0.000000 -7.000000 0.000000 
35 1 0.059113 0.003499 0.118738 0.000116 0.000000 -7.000000 0.000000 
36 1 0.132791 0.004517 0.084399 0.000116 0.000000 -7.000000 0.000000 
37 1 0.034376 0.003152 0.020581 0.000116 0.000000 -7.000000 0.000000 
38 1 0.017268 0.002365 0.022098 0.000423 0.000000 -7.000000 0.000000 
39 1 0.123792 0.003712 0.053609 0.000116 0.000000 -7.000000 0.000000 
40 1 0.060669 0.002863 0.032374 0.000656 0.000000 -7.000000 0.000000 
41 1 0.070835 0.004570 0.043551 0.000423 0.000000 -7.000000 0.000000 
42 1 0.045710 0.002870 0.056423 0.000423 0.000000 -7.000000 0.000000 
43 1 0.160952 0.004091 0.106966 0.000423 0.000000 -7.000000 0.000000 
44 1 0.153891 0.002580 0.128123 0.000116 0.000000 -7.000000 0.000000 
45 1 0.132111 0.003245 0.130854 0.000116 0.000000 -7.000000 0.000000 
46 1 0.118743 0.004037 0.116263 0.000423 0.000000 -7.000000 0.000000 
47 1 0.085962 0.002020 0.024809 0.000423 0.000000 -7.000000 0.000000 
48 1 0.035058 0.003721 0.013916 0.000116 0.000000 -7.000000 0.000000 
49 1 0.157991 0.002868 0.134950 0.000116 0.000000 -7.000000 0.000000 
50 1 0.024490 0.004507 0.065655 0.000656 0.000000 -7.000000 0.000000 
51 1 0.143604 0.003268 0.038795 0.000116 0.000000 -7.000000 0.000000 
52 1 0.065327 0.002422 0.153222 0.000423 0.000000 -7.000000 0.000000 
53 1 0.078303 0.003726 0.093524 0.000423 0.000000 -7.000000 0.000000 
54 1 0.003925 0.002533 0.068379 0.000423 0.000000 -7.000000 0.000000 
55 1 0.157406 0.003727 0.079227 0.000423 0.000000 -7.000000 0.000000 
56 1 0.112533 0.002035 0.062926 0.000423 0.000000 -7.000000 0.000000 
57 1 0.057367 0.004506 0.016604 0.000423 0.000000 -7.000000 0.000000 
58 1 0.129514 0.002245 0.078324 0.000423 0.000000 -7.000000 0.000000 
59 1 0.080657 0.004351 0.010435 0.000656 0.000000 -7.000000 0.000000 
60 1 0.073529 0.002970 0.076847 0.000656 0.000000 -7.000000 0.000000 
61 1 0.131259 0.004399 0.160211 0.000423 0.000000 -7.000000 0.000000 
62 1 0.099325 0.003525 0.074455 0.000116 0.000000 -7.000000 0.000000 
63 1 0.068484 0.002207 0.039967 0.000423 0.000000 -7.000000 0.000000 
64 1 0.050143 0.004185 0.015685 0.000116 0.000000 -7.000000 0.000000 
65 1 0.027038 0.004440 0.001133 0.000116 0.000000 -7.000000 0.000000 
66 1 0.028179 0.003591 0.028997 0.000423 0.000000 -7.000000 0.000000 
67 1 0.096194 0.002323 0.011854 0.000656 0.000000 -7.000000 0.000000 
68 1 0.040664 0.004536 0.152151 0.000116 0.000000 -7.000000 0.000000 
69 1 0.138575 0.003964 0.104583 0.000423 0.000000 -7.000000 0.000000 
70 1 0.049569 0.002355 0.027006 0.000423 0.000000 -7.000000 0.000000 
71 1 0.106422 0.004302 0.030376 0.000423 0.000000 -7.000000 0.000000 
72 1 0.017980 0.003390 0.019191 0.000116 0.000000 -7.000000 0.000000 
73 1 0.037608 0.002364 0.142099 0.000656 0.000000 -7.000000 0.000000 
74 1 0.016682 0.003661 0.040915 0.000042 0.000000 -7.000000 0.000000 
75 1 0.114475 0.004131 0.038340 0.000116 0.000000 -7.000000 0.000000 
76 1 0.035903 0.003589 0.046976 0.000423 0.000000 -7.000000 0.000000 
77 1 0.030578 0.002254 0.153936 0.000423 0.000000 -7.000000 0.000000 
78 1 0.136266 0.003071 0.044207 0.000042 0.000000 -7.000000 0.000000 
79 1 0.044981 0.003846 0.139700 0.000656 0.000000 -7.000000 0.000000 
80 1 0.137579 0.002942 0.074240 0.000042 0.000000 -7.000000 0.000000 
81 1 0.036597 0.002165 0.072921 0.000116 0.000000 -7.000000 0.000000 
82 1 0.154961 0.003649 0.023145 0.000423 0.000000 -7.000000 0.000000 
83 1 0.115052 0.004313 0.039087 0.000116 0.000000 -7.000000 0.000000 
84 1 0.108185 0.002335 0.001133 0.000656 0.000000 -7.000000 0.000000 
85 1 0.142263 0.004465 0.066596 0.000116 0.000000 -7.000000 0.000000 
86 1 0.158832 0.003249 0.026032 0.000116 0.000000 -7.000000 0.000000 
87 1 0.087008 0.002385 0.150485 0.000423 0.000000 -7.000000 0.000000 
88 1 0.147006 0.003542 0.017217 0.000423 0.000000 -7.000000 0.000000 
89 1 0.041986 0.002551 0.149005 0.000116 0.000000 -7.000000 0.000000 
90 1 0.089920 0.003677 0.105332 0.000116 0.000000 -7.000000 0.000000 
91 1 0.116866 0.004386 0.091310 0.000423 0.000000 -7.000000 0.000000 
92 1 0.004886 0.002847 0.051052 0.000116 0.000000 -7.000000 0.000000 
93 1 0.072106 0.004284 0.144638 0.000656 0.000000 -7.000000 0.000000 
94 1 0.127492 0.002359 0.002577 0.000116 0.000000 -7.000000 0.000000 
95 1 0.133588 0.003387 0.004153 0.000116 0.000000 -7.000000 0.000000 
96 1 0.058104 0.002380 0.084897 0.000116 0.000000 -7.000000 0.000000 
97 1 0.070663 0.002928 0.067267 0.000423 0.000000 -7.000000 0.000000 
98 1 0.053584 0.004455 0.045212 0.000656 0.000000 -7.000000 0.000000 
99 1 0.124711 0.002449 0.160937 0.000116 0.000000 -7.000000 0.000000 
100 1 0.126092 0.003608 0.110210 0.000116 0.000000 -7.000000 0.000000 
101 1 0.123237 0.003365 0.132694 0.000116 0.000000 -7.000000 0.000000 
102 1 0.058375 0.004558 0.090329 0.000116 0.000000 -7.000000 0.000000 
103 1 0.134585 0.001986 0.018650 0.000116 0.000000 -7.000000 0.000000 
104 1 0.020242 0.004179 0.006244 0.000423 0.000000 -7.000000 0.000000 
105 1 0.009584 0.002832 0.136751 0.000116 0.000000 -7.000000 0.000000 
106 1 0.074431 0.003494 0.116910 0.000042 0.000000 -7.000000 0.000000 
107 1 0.048287 0.002551 0.101388 0.000423 0.000000 -7.000000 0.000000 
108 1 0.148267 0.004302 0.058848 0.000423 0.000000 -7.000000 0.000000 
109 1 0.093919 0.002398 0.043158 0.000656 0.000000 -7.000000 0.000000 
110 1 0.002828 0.003375 0.061233 0.000116 0.000000 -7.000000 0.000000 
111 1 0.145579 0.004583 0.021193 0.000116 0.000000 -7.000000 0.000000 
112 1 0.092126 0.002399 0.064919 0.000656 0.000000 -7.000000 0.000000 
113 1 0.034671 0.004433 0.080485 0.000042 0.000000 -7.000000 0.000000 
114 1 0.059046 0.003513 0.060169 0.000423 0.000000 -7.000000 0.000000 
115 1 0.054559 0.002057 0.109381 0.000116 0.000000 -7.000000 0.000000 
116 1 0.067436 0.004226 0.137762 0.000116 0.000000 -7.000000 0.000000 
117 1 0.132358 0.002868 0.117476 0.000423 0.000000 -7.000000 0.000000 
118 1 0.061164 0.004431 0.075063 0.000656 0.000000 -7.000000 0.000000 
119 1 0.080647 0.002994 0.131204 0.000656 0.000000 -7.000000 0.000000 
120 1 0.124076 0.004258 0.025565 0.000423 0.000000 -7.000000 0.000000 
121 1 0.018207 0.002137 0.068698 0.000656 0.000000 -7.000000 0.000000 
122 1 0.039640 0.003605 0.137159 0.000656 0.000000 -7.000000 0.000000 
123 1 0.102061 0.002137 0.113548 0.000656 0.000000 -7.000000 0.000000 
124 1 0.028533 0.004146 0.157294 0.000116 0.000000 -7.000000 0.000000 
125 1 0.047567 0.004476 0.133429 0.000116 0.000000 -7.000000 0.000000 
126 1 0.026139 0.003241 0.085355 0.000116 0.000000 -7.000000 0.000000 
127 1 0.007895 0.002544 0.128594 0.000423 0.000000 -7.000000 0.000000 
128 1 0.011262 0.004289 0.038725 0.000423 0.000000 -7.000000 0.000000 
129 1 0.082621 0.002682 0.095078 0.000116 0.000000 -7.000000 0.000000 
130 1 0.115638 0.003586 0.026445 0.000116 0.000000 -7.000000 0.000000 
131 1 0.153599 0.003117 0.087020 0.000116 0.000000 -7.000000 0.000000 
132 1 0.125620 0.002074 0.133126 0.000116 0.000000 -7.000000 0.000000 
133 1 0.160988 0.004231 0.125020 0.000116 0.000000 -7.000000 0.000000 
134 1 0.056745 0.002701 0.070757 0.000116 0.000000 -7.000000 0.000000 
135 1 0.104735 0.003359 0.155368 0.000423 0.000000 -7.000000 0.000000 
136 1 0.084853 0.002077 0.036920 0.000423 0.000000 -7.000000 0.000000 
137 1 0.020988 0.003914 0.149455 0.000116 0.000000 -7.000000 0.000000 
138 1 0.107503 0.002125 0.096627 0.000423 0.000000 -7.000000 0.000000 
139 1 0.120547 0.004500 0.069942 0.000423 0.000000 -7.000000 0.000000 
140 1 0.143840 0.003036 0.122342 0.000423 0.000000 -7.000000 0.000000 
141 1 0.130280 0.004193 0.091733 0.000423 0.000000 -7.000000 0.000000 
142 1 0.006000 0.002300 0.153110 0.000423 0.000000 -7.000000 0.000000 
143 1 0.152280 0.004376 0.142451 0.000656 0.000000 -7.000000 0.000000 
144 1 0.141602 0.002762 0.156487 0.000423 0.000000 -7.000000 0.000000 
145 1 0.090666 0.003601 0.149721 0.000116 0.000000 -7.000000 0.000000 
146 1 0.156933 0.002810 0.015215 0.000656 0.000000 -7.000000 0.000000 
147 1 0.016075 0.004431 0.062734 0.000423 0.000000 -7.000000 0.000000 
148 1 0.033798 0.003056 0.094400 0.000423 0.000000 -7.000000 0.000000 
149 1 0.043154 0.004478 0.055612 0.000656 0.000000 -7.000000 0.000000 
150 1 0.076027 0.002663 0.129791 0.000423 0.000000 -7.000000 0.000000 
151 1 0.150007 0.003603 0.102894 0.000116 0.000000 -7.000000 0.000000 
152 1 0.048531 0.004516 0.014359 0.000116 0.000000 -7.000000 0.000000 
153 1 0.084256 0.002028 0.138565 0.000042 0.000000 -7.000000 0.000000 
154 1 0.126711 0.002191 0.118529 0.000042 0.000000 -7.000000 0.000000 
155 1 0.053556 0.003292 0.126971 0.000423 0.000000 -7.000000 0.000000 
156 1 0.119936 0.003989 0.147143 0.000116 0.000000 -7.000000 0.000000 
157 1 0.135811 0.004365 0.009030 0.000042 0.000000 -7.000000 0.000000 
158 1 0.133349 0.003081 0.089253 0.000423 0.000000 -7.000000 0.000000 
159 1 0.085116 0.004182 0.117239 0.000656 0.000000 -7.000000 0.000000 
160 1 0.128169 0.002281 0.133745 0.000042 0.000000 -7.000000 0.000000 
161 1 0.127216 0.002567 0.117947 0.000042 0.000000 -7.000000 0.000000 
162 1 0.036901 0.003322 0.031353 0.000423 0.000000 -7.000000 0.000000 
163 1 0.013719 0.002363 0.155469 0.000423 0.000000 -7.000000 0.000000 
164 1 0.117870 0.004323 0.135319 0.000116 0.000000 -7.000000 0.000000 
165 1 0.041117 0.003835 0.009537 0.000116 0.000000 -7.000000 0.000000 
166 1 0.077306 0.003405 0.110508 0.000116 0.000000 -7.000000 0.000000 
167 1 0.067834 0.003579 0.146449 0.000042 0.000000 -7.000000 0.000000 
168 1 0.140166 0.003025 0.129180 0.000116 0.000000 -7.000000 0.000000 
169 1 0.150378 0.002033 0.086368 0.000116 0.000000 -7.000000 0.000000 
170 1 0.086503 0.004383 0.120083 0.000423 0.000000 -7.000000 0.000000 
171 1 0.056153 0.002743 0.121461 0.000116 0.000000 -7.000000 0.000000 
172 1 0.061603 0.003494 0.085308 0.000423 0.000000 -7.000000 0.000000 
173 1 0.144656 0.002017 0.093137 0.000116 0.000000 -7.000000 0.000000 
174 1 0.100686 0.003968 0.152036 0.000042 0.000000 -7.000000 0.000000 
175 1 0.160100 0.002024 0.046048 0.000656 0.000000 -7.000000 0.000000 
176 1 0.001438 0.004539 0.004430 0.000116 0.000000 -7.000000 0.000000 
177 1 0.102003 0.003695 0.010630 0.000423 0.000000 -7.000000 0.000000 
178 1 0.012489 0.002545 0.043479 0.000116 0.000000 -7.000000 0.000000 
179 1 0.106593 0.002993 0.115774 0.000116 0.000000 -7.000000 0.000000 
180 1 0.029738 0.004277 0.111879 0.000042 0.000000 -7.000000 0.000000 
181 1 0.146304 0.002648 0.121866 0.000116 0.000000 -7.000000 0.000000 
182 1 0.139395 0.004075 0.034397 0.000423 0.000000 -7.000000 0.000000 
183 1 0.030772 0.002311 0.081074 0.000423 0.000000 -7.000000 0.000000 
184 1 0.142855 0.003498 0.145982 0.000116 0.000000 -7.000000 0.000000 
185 1 0.000970 0.004114 0.075131 0.000116 0.000000 -7.000000 0.000000 
186 1 0.054888 0.002224 0.153516 0.000423 0.000000 -7.000000 0.000000 
187 1 0.008711 0.003261 0.108405 0.000423 0.000000 -7.000000 0.000000 
188 1 0.064849 0.004146 0.005091 0.000423 0.000000 -7.000000 0.000000 
189 1 0.145410 0.002651 0.032542 0.000423 0.000000 -7.000000 0.000000 
190 1 0.063435 0.003572 0.052616 0.000423 0.000000 -7.000000 0.000000 
191 1 0.057789 0.002584 0.038781 0.000423 0.000000 -7.000000 0.000000 
192 1 0.147251 0.003757 0.146142 0.000423 0.000000 -7.000000 0.000000 
193 1 0.129432 0.002609 0.056767 0.000423 0.000000 -7.000000 0.000000 
194 1 0.006868 0.004532 0.034958 0.000116 0.000000 -7.000000 0.000000 
195 1 0.116529 0.002781 0.073239 0.000116 0.000000 -7.000000 0.000000 
196 1 0.093708 0.001997 0.117561 0.000116 0.000000 -7.000000 0.000000 
197 1 0.001978 0.003872 0.012413 0.000042 0.000000 -7.000000 0.000000 
198 1 0.073518 0.002608 0.017315 0.000423 0.000000 -7.000000 0.000000 
199 1 0.159291 0.004325 0.109548 0.000656 0.000000 -7.000000 0.000000 
200 1 0.105457 0.002941 0.008332 0.000423 0.000000 -7.000000 0.000000 
201 1 0.103198 0.003532 0.058516 0.000116 0.000000 -7.000000 0.000000 
202 1 0.156016 0.002415 0.044872 0.000116 0.000000 -7.000000 0.000000 
203 1 0.109323 0.004024 0.160748 0.000116 0.000000 -7.000000 0.000000 
204 1 0.150332 0.002031 0.048720 0.000116 0.000000 -7.000000 0.000000 
205 1 0.059857 0.003487 0.047923 0.000042 0.000000 -7.000000 0.000000 
206 1 0.083343 0.003003 0.131559 0.000423 0.000000 -7.000000 0.000000 
207 1 0.094559 0.004226 0.059580 0.000116 0.000000 -7.000000 0.000000 
208 1 0.084337 0.002083 0.135903 0.000423 0.000000 -7.000000 0.000000 
209 1 0.119416 0.003587 0.062040 0.000116 0.000000 -7.000000 0.000000 
210 1 0.099311 0.004239 0.141051 0.000423 0.000000 -7.000000 0.000000 
211 1 0.124407 0.002483 0.014900 0.000423 0.000000 -7.000000 0.000000 
212 1 0.148551 0.004569 0.010262 0.000423 0.000000 -7.000000 0.000000 
213 1 0.044271 0.002667 0.001469 0.000423 0.000000 -7.000000 0.000000 
214 1 0.048911 0.003843 0.157672 0.000116 0.000000 -7.000000 0.000000 
215 1 0.092951 0.002842 0.037912 0.000423 0.000000 -7.000000 0.000000 
216 1 0.007551 0.001974 0.144278 0.000423 0.000000 -7.000000 0.000000 
217 1 0.116240 0.003784 0.019240 0.000116 0.000000 -7.000000 0.000000 
218 1 0.080191 0.004544 0.006156 0.000423 0.000000 -7.000000 0.000000 
219 1 0.043170 0.003384 0.011985 0.000116 0.000000 -7.000000 0.000000 
220 1 0.138694 0.002128 0.107900 0.000116 0.000000 -7.000000 0.000000 
221 1 0.088173 0.004037 0.106673 0.000656 0.000000 -7.000000 0.000000 
222 1 0.075163 0.002703 0.147082 0.000116 0.000000 -7.000000 0.000000 
223 1 0.123269 0.004337 0.036730 0.000423 0.000000 -7.000000 0.000000 
224 1 0.066198 0.002425 0.115166 0.000116 0.000000 -7.000000 0.000000 
225 1 0.098137 0.004338 0.088309 0.000423 0.000000 -7.000000 0.000000 
226 1 0.028084 0.003154 0.072064 0.000423 0.000000 -7.000000 0.000000 
227 1 0.014399 0.002103 0.152414 0.000116 0.000000 -7.000000 0.000000 
228 1 0.060141 0.002581 0.047530 0.000116 0.000000 -7.000000 0.000000 
229 1 0.008865 0.004186 0.095563 0.000116 0.000000 -7.000000 0.000000 
230 1 0.079300 0.002348 0.054590 0.000116 0.000000 -7.000000 0.000000 
231 1 0.151138 0.003780 0.020606 0.000423 0.000000 -7.000000 0.000000 
232 1 0.095867 0.002921 0.147483 0.000116 0.000000 -7.000000 0.000000 
233 1 0.061616 0.003780 0.100060 0.000116 0.000000 -7.000000 0.000000 
234 1 0.031609 0.003081 0.100665 0.000042 0.000000 -7.000000 0.000000 
235 1 0.041752 0.002318 0.158643 0.000423 0.000000 -7.000000 0.000000 
236 1 0.159795 0.003344 0.097353 0.000423 0.000000 -7.000000 0.000000 
237 1 0.050480 0.004510 0.134257 0.000116 0.000000 -7.000000 0.000000 
238 1 0.010917 0.002047 0.151235 0.000423 0.000000 -7.000000 0.000000 
239 1 0.134997 0.003951 0.044764 0.000116 0.000000 -7.000000 0.000000 
240 1 0.051506 0.002976 0.002785 0.000423 0.000000 -7.000000 0.000000 
241 1 0.042315 0.003608 0.096278 0.000116 0.000000 -7.000000 0.000000 
242 1 0.049464 0.002141 0.077430 0.000423 0.000000 -7.000000 0.000000 
243 1 0.121864 0.004362 0.125873 0.000042 0.000000 -7.000000 0.000000 
244 1 0.067606 0.003888 0.101013 0.000423 0.000000 -7.000000 0.000000 
245 1 0.078244 0.002202 0.111695 0.000656 0.000000 -7.000000 0.000000 
246 1 0.096660 0.004114 0.082747 0.000423 0.000000 -7.000000 0.000000 
247 1 0.032669 0.002136 0.060184 0.000423 0.000000 -7.000000 0.000000 
248 1 0.143162 0.002778 0.035765 0.000116 0.000000 -7.000000 0.000000 
249 1 0.022254 0.004548 0.023300 0.000116 0.000000 -7.000000 0.000000 
250 1 0.022493 0.003426 0.039535 0.000116 0.000000 -7.000000 0.000000 
251 1 0.109835 0.003044 0.148956 0.000116 0.000000 -7.000000 0.000000 
252 1 0.052372 0.002628 0.074361 0.000116 0.000000 -7.000000 0.000000 
253 1 0.034715 0.003471 0.070489 0.000116 0.000000 -7.000000 0.000000 
254 1 0.094300 0.002463 0.003434 0.000116 0.000000 -7.000000 0.000000 
255 1 0.111674 0.003401 0.019727 0.000423 0.000000 -7.000000 0.000000 
256 1 0.091171 0.004574 0.041671 0.000656 0.000000 -7.000000 0.000000 
257 1 0.015177 0.003036 0.104936 0.000423 0.000000 -7.000000 0.000000 
258 1 0.048555 0.002395 0.043400 0.000116 0.000000 -7.000000 0.000000 
259 1 0.094912 0.003785 0.049869 0.000116 0.000000 -7.000000 0.000000 
260 1 0.004840 0.002828 0.152902 0.000656 0.000000 -7.000000 0.000000 
261 1 0.068779 0.004335 0.028837 0.000423 0.000000 -7.000000 0.000000 
262 1 0.019753 0.002303 0.040547 0.000423 0.000000 -7.000000 0.000000 
263 1 0.017141 0.003649 0.124486 0.000116 0.000000 -7.000000 0.000000 
264 1 0.140870 0.002756 0.094346 0.000656 0.000000 -7.000000 0.000000 
265 1 0.051603 0.004002 0.013845 0.000116 0.000000 -7.000000 0.000000 
266 1 0.081775 0.002997 0.027512 0.000423 0.000000 -7.000000 0.000000 
267 1 0.132071 0.004562 0.119328 0.000423 0.000000 -7.000000 0.000000 
268 1 0.115451 0.003589 0.113311 0.000116 0.000000 -7.000000 0.000000 
269 1 0.115081 0.004163 0.017289 0.000116 0.000000 -7.000000 0.000000 
270 1 0.063892 0.002282 0.128139 0.000116 0.000000 -7.000000 0.000000 
271 1 0.023654 0.003568 0.029550 0.000116 0.000000 -7.000000 0.000000 
272 1 0.155724 0.002916 0.074722 0.000116 0.000000 -7.000000 0.000000 
273 1 0.137918 0.003886 0.050776 0.000116 0.000000 -7.000000 0.000000 
274 1 0.111078 0.002115 0.087319 0.000116 0.000000 -7.000000 0.000000 
275 1 0.023085 0.002672 0.137057 0.000423 0.000000 -7.000000 0.000000 
276 1 0.156854 0.003944 0.088924 0.000423 0.000000 -7.000000 0.000000 
277 1 0.137196 0.003216 0.113618 0.000116 0.000000 -7.000000 0.000000 
278 1 0.078922 0.002259 0.011437 0.000116 0.000000 -7.000000 0.000000 
279 1 0.126008 0.004288 0.121056 0.000423 0.000000 -7.000000 0.000000 
280 1 0.110399 0.002040 0.053848 0.000423 0.000000 -7.000000 0.000000 
281 1 0.119907 0.003270 0.123573 0.000423 0.000000 -7.000000 0.000000 
282 1 0.012092 0.003880 0.093454 0.000116 0.000000 -7.000000 0.000000 
283 1 0.039044 0.004433 0.110264 0.000423 0.000000 -7.000000 0.000000 
284 1 0.036824 0.002079 0.159491 0.000423 0.000000 -7.000000 0.000000 
285 1 0.148042 0.003295 0.103578 0.000423 0.000000 -7.000000 0.000000 
286 1 0.076146 0.002705 0.066417 0.000116 0.000000 -7.000000 0.000000 
287 1 0.130982 0.004468 0.135913 0.000656 0.000000 -7.000000 0.000000 
288 1 0.065093 0.003093 0.125082 0.000423 0.000000 -7.000000 0.000000 
289 1 0.005744 0.002601 0.151781 0.000042 0.000000 -7.000000 0.000000 
290 1 0.090462 0.003714 0.017451 0.000042 0.000000 -7.000000 0.000000 
291 1 0.072530 0.002035 0.033403 0.000656 0.000000 -7.000000 0.000000 
292 1 0.149453 0.004055 0.134520 0.000116 0.000000 -7.000000 0.000000 
293 1 0.145922 0.002979 0.098118 0.000116 0.000000 -7.000000 0.000000 
294 1 0.083181 0.003814 0.012766 0.000423 0.000000 -7.000000 0.000000 
295 1 0.063139 0.004569 0.075761 0.000116 0.000000 -7.000000 0.000000 
296 1 0.148858 0.003987 0.105642 0.000116 0.000000 -7.000000 0.000000 
297 1 0.047402 0.001999 0.048707 0.000423 0.000000 -7.000000 0.000000 
298 1 0.013371 0.003306 0.138948 0.000656 0.000000 -7.000000 0.000000 
299 1 0.141222 0.004574 0.158417 0.000423 0.000000 -7.000000 0.000000 
300 1 0.051847 0.002031 0.003268 0.000423 0.000000 -7.000000 0.000000 
301 1 0.053076 0.003113 0.144964 0.000423 0.000000 -7.000000 0.000000 
302 1 0.098689 0.004298 0.084601 0.000116 0.000000 -7.000000 0.000000 
303 1 0.158360 0.003401 0.041070 0.000423 0.000000 -7.000000 0.000000 
304 1 0.086907 0.002412 0.068100 0.000116 0.000000 -7.000000 0.000000 
305 1 0.112807 0.004539 0.127846 0.000423 0.000000 -7.000000 0.000000 
306 1 0.104979 0.002926 0.080211 0.000423 0.000000 -7.000000 0.000000 
307 1 0.055749 0.002163 0.161252 0.000116 0.000000 -7.000000 0.000000 
308 1 0.044945 0.004420 0.064135 0.000423 0.000000 -7.000000 0.000000 
309 1 0.024591 0.002121 0.034504 0.000423 0.000000 -7.000000 0.000000 
310 1 0.131273 0.003848 0.061660 0.000042 0.000000 -7.000000 0.000000 
311 1 0.096883 0.002113 0.071260 0.000116 0.000000 -7.000000 0.000000 
312 1 0.108762 0.003287 0.117534 0.000116 0.000000 -7.000000 0.000000 
313 1 0.124680 0.003529 0.022334 0.000116 0.000000 -7.000000 0.000000 
314 1 0.090270 0.002498 0.016032 0.000116 0.000000 -7.000000 0.000000 
315 1 0.071236 0.004382 0.068969 0.000423 0.000000 -7.000000 0.000000 
316 1 0.069634 0.002700 0.148009 0.000423 0.000000 -7.000000 0.000000 
317 1 0.018784 0.003457 0.051131 0.000042 0.000000 -7.000000 0.000000 
318 1 0.078017 0.004258 0.028737 0.000423 0.000000 -7.000000 0.000000 
319 1 0.133909 0.002548 0.102023 0.000423 0.000000 -7.000000 0.000000 
320 1 0.062223 0.003562 0.097195 0.000116 0.000000 -7.000000 0.000000 
321 1 0.095200 0.002952 0.086756 0.000116 0.000000 -7.000000 0.000000 
322 1 0.154611 0.004158 0.156022 0.000423 0.000000 -7.000000 0.000000 
323 1 0.152920 0.003228 0.138125 0.000042 0.000000 -7.000000 0.000000 
324 1 0.018070 0.002145 0.114625 0.000423 0.000000 -7.000000 0.000000 
325 1 0.019043 0.004187 0.116975 0.000116 0.000000 -7.000000 0.000000 
326 1 0.001476 0.003236 0.082054 0.000423 0.000000 -7.000000 0.000000 
327 1 0.019879 0.004200 0.020058 0.000423 0.000000 -7.000000 0.000000 
328 1 0.021813 0.002238 0.081087 0.000042 0.000000 -7.000000 0.000000 
329 1 0.128986 0.003026 0.092156 0.000423 0.000000 -7.000000 0.000000 
330 1 0.122260 0.004140 0.046534 0.000042 0.000000 -7.000000 0.000000 
331 1 0.008847 0.002074 0.025112 0.000116 0.000000 -7.000000 0.000000 
332 1 0.130125 0.003438 0.072580 0.000423 0.000000 -7.000000 0.000000 
333 1 0.111749 0.002181 0.058022 0.000656 0.000000 -7.000000 0.000000 
334 1 0.093869 0.004029 0.146796 0.000042 0.000000 -7.000000 0.000000 
335 1 0.103259 0.004413 0.111016 0.000116 0.000000 -7.000000 0.000000 
336 1 0.087181 0.002475 0.030702 0.000656 0.000000 -7.000000 0.000000 
337 1 0.078317 0.004561 0.009030 0.000656 0.000000 -7.000000 0.000000 
338 1 0.100179 0.002902 0.038127 0.000423 0.000000 -7.000000 0.000000 
339 1 0.035201 0.003853 0.024381 0.000423 0.000000 -7.000000 0.000000 
340 1 0.089218 0.002698 0.076989 0.000116 0.000000 -7.000000 0.000000 
341 1 0.063393 0.001999 0.106806 0.000042 0.000000 -7.000000 0.000000 
342 1 0.113895 0.004496 0.157009 0.000116 0.000000 -7.000000 0.000000 
343 1 0.040755 0.003571 0.154710 0.000423 0.000000 -7.000000 0.000000 
344 1 0.026353 0.004253 0.090821 0.000116 0.000000 -7.000000 0.000000 
345 1 0.146378 0.002629 0.004988 0.000423 0.000000 -7.000000 0.000000 
346 1 0.080680 0.004200 0.099398 0.000423 0.000000 -7.000000 0.000000 
347 1 0.010159 0.002012 0.115548 0.000423 0.000000 -7.000000 0.000000 
348 1 0.137334 0.003657 0.077531 0.000116 0.000000 -7.000000 0.000000 
349 1 0.026920 0.002662 0.093500 0.000116 0.000000 -7.000000 0.000000 
350 1 0.049942 0.003494 0.036403 0.000423 0.000000 -7.000000 0.000000 
351 1 0.085611 0.004150 0.033323 0.000042 0.000000 -7.000000 0.000000 
352 1 0.101417 0.002395 0.007459 0.000423 0.000000 -7.000000 0.000000 
353 1 0.019215 0.004469 0.100466 0.000042 0.000000 -7.000000 0.000000 
354 1 0.083321 0.002917 0.060797 0.000116 0.000000 -7.000000 0.000000 
355 1 0.111145 0.003876 0.001866 0.000423 0.000000 -7.000000 0.000000 
356 1 0.060913 0.004439 0.139711 0.000042 0.000000 -7.000000 0.000000 
357 1 0.065114 0.002404 0.053356 0.000656 0.000000 -7.000000 0.000000 
358 1 0.036191 0.003477 0.118841 0.000116 0.000000 -7.000000 0.000000 
359 1 0.125342 0.003199 0.018465 0.000116 0.000000 -7.000000 0.000000 
360 1 0.032300 0.004567 0.045843 0.000423 0.000000 -7.000000 0.000000 
361 1 0.001268 0.003842 0.003827 0.000116 0.000000 -7.000000 0.000000 
362 1 0.028842 0.002340 0.132126 0.000116 0.000000 -7.000000 0.000000 
363 1 0.006852 0.003016 0.133962 0.000042 0.000000 -7.000000 0.000000 
364 1 0.142518 0.002422 0.076448 0.000423 0.000000 -7.000000 0.000000 
365 1 0.014662 0.004091 0.003871 0.000656 0.000000 -7.000000 0.000000 
366 1 0.039524 0.002048 0.008361 0.000423 0.000000 -7.000000 0.000000 
367 1 0.076761 0.003699 0.091646 0.000423 0.000000 -7.000000 0.000000 
368 1 0.056865 0.002433 0.106303 0.000423 0.000000 -7.000000 0.000000 
369 1 0.160318 0.003920 0.142410 0.000656 0.000000 -7.000000 0.000000 
370 1 0.016503 0.002821 0.081060 0.000423 0.000000 -7.000000 0.000000 
371 1 0.045636 0.002119 0.095320 0.000116 0.000000 -7.000000 0.000000 
372 1 0.043981 0.003855 0.047690 0.000423 0.000000 -7.000000 0.000000 
373 1 0.027526 0.002910 0.087045 0.000116 0.000000 -7.000000 0.000000 
374 1 0.020744 0.002132 0.159773 0.000423 0.000000 -7.000000 0.000000 
375 1 0.022916 0.004548 0.095889 0.000423 0.000000 -7.000000 0.000000 
376 1 0.074413 0.003320 0.032387 0.000423 0.000000 -7.000000 0.000000 
377 1 0.061443 0.002010 0.133785 0.000116 0.000000 -7.000000 0.000000 
378 1 0.002627 0.004577 0.110259 0.000423 0.000000 -7.000000 0.000000 
379 1 0.000692 0.002447 0.159063 0.000116 0.000000 -7.000000 0.000000 
380 1 0.147587 0.003416 0.132085 0.000656 0.000000 -7.000000 0.000000 
381 1 0.021563 0.004482 0.151012 0.000116 0.000000 -7.000000 0.000000 
382 1 0.127009 0.002061 0.050278 0.000423 0.000000 -7.000000 0.000000 
383 1 0.112361 0.003339 0.043775 0.000116 0.000000 -7.000000 0.000000 
384 1 0.039229 0.002590 0.145796 0.000423 0.000000 -7.000000 0.000000 
385 1 0.053199 0.004085 0.088366 0.000423 0.000000 -7.000000 0.000000 
386 1 0.058015 0.003030 0.056493 0.000423 0.000000 -7.000000 0.000000 
387 1 0.037846 0.002124 0.146949 0.000423 0.000000 -7.000000 0.000000 
388 1 0.059264 0.003049 0.125358 0.000423 0.000000 -7.000000 0.000000 
389 1 0.030854 0.003950 0.079577 0.000116 0.000000 -7.000000 0.000000 
390 1 0.017366 0.003342 0.042773 0.000423 0.000000 -7.000000 0.000000 
391 1 0.060462 0.004217 0.074911 0.000116 0.000000 -7.000000 0.000000 
392 1 0.121266 0.002201 0.035196 0.000116 0.000000 -7.000000 0.000000 
393 1 0.020633 0.003182 0.104621 0.000423 0.000000 -7.000000 0.000000 
394 1 0.035766 0.004208 0.086131 0.000116 0.000000 -7.000000 0.000000 
395 1 0.106260 0.003630 0.120744 0.000423 0.000000 -7.000000 0.000000 
396 1 0.093996 0.002681 0.001210 0.000042 0.000000 -7.000000 0.000000 
397 1 0.046336 0.003829 0.074069 0.000423 0.000000 -7.000000 0.000000 
398 1 0.029066 0.002087 0.040649 0.000656 0.000000 -7.000000 0.000000 
399 1 0.085086 0.003498 0.158911 0.000116 0.000000 -7.000000 0.000000 
400 1 0.131378 0.004182 0.023773 0.000042 0.000000 -7.000000 0.000000 
401 1 0.128827 0.004424 0.080896 0.000116 0.000000 -7.000000 0.000000 
402 1 0.122300 0.002736 0.051052 0.000423 0.000000 -7.000000 0.000000 
403 1 0.108146 0.004167 0.097947 0.000423 0.000000 -7.000000 0.000000 
404 1 0.117705 0.002099 0.009716 0.000423 0.000000 -7.000000 0.000000 
405 1 0.064740 0.004345 0.106062 0.000116 0.000000 -7.000000 0.000000 
406 1 0.091978 0.002595 0.032739 0.000423 0.000000 -7.000000 0.000000 
407 1 0.137427 0.003207 0.109714 0.000116 0.000000 -7.000000 0.000000 
408 1 0.047456 0.004163 0.117044 0.000656 0.000000 -7.000000 0.000000 
409 1 0.039471 0.003252 0.137267 0.000116 0.000000 -7.000000 0.000000 
410 1 0.005466 0.002518 0.094557 0.000116 0.000000 -7.000000 0.000000 
411 1 0.024844 0.003318 0.069951 0.000423 0.000000 -7.000000 0.000000 
412 1 0.055062 0.002192 0.014355 0.000423 0.000000 -7.000000 0.000000 
413 1 0.016556 0.003501 0.017436 0.000656 0.000000 -7.000000 0.000000 
414 1 0.066167 0.004510 0.021955 0.000116 0.000000 -7.000000 0.000000 
415 1 0.012712 0.002360 0.129444 0.000423 0.000000 -7.000000 0.000000 
416 1 0.072774 0.003426 0.071574 0.000423 0.000000 -7.000000 0.000000 
417 1 0.114234 0.002359 0.037403 0.000116 0.000000 -7.000000 0.000000 
418 1 0.149012 0.004300 0.015862 0.000423 0.000000 -7.000000 0.000000 
419 1 0.073732 0.003092 0.158593 0.000116 0.000000 -7.000000 0.000000 
420 1 0.025512 0.004411 0.031250 0.000116 0.000000 -7.000000 0.000000 
421 1 0.155190 0.002117 0.083881 0.000423 0.000000 -7.000000 0.000000 