ITEM: TIMESTEP
120000
ITEM: NUMBER OF ATOMS
2466
ITEM: BOX BOUNDS ff ff ff
-0.005905 0.167905
-0.000656 0.011154
-0.005905 0.167905
ITEM: ATOMS id type x y z radius vx vy vz density 
990 1 0.113018 0.000717488 0.00087436 0.000116 9.43794 1.72365 4.34442 2650 
1188 1 0.020639 0.00167533 0.000927 0.000116 0 2.23849 0 2650 
65 1 0.027038 0.00139857 0.001133 0.000116 0 2.23824 0 2650 
1370 1 0.0466836 0.00127401 0.000733009 0.000116 5.56923 1.60978 -4.153 2650 
1756 1 0.004144 0.00184957 0.000832 0.000423 0 2.23961 0 2650 
2317 1 0.014297 0.00250705 0.001071 0.000423 0 2.23961 0 2650 
2078 1 0.019324 0.00175669 0.000953 0.000116 0 2.23824 0 2650 
1551 1 0.0859055 0.00250981 0.000853365 0.000656 0.551287 1.97103 -0.133068 2650 
820 1 0.110174 0.00216937 0.001096 0.000656 0 2.2398 0 2650 
84 1 0.108185 0.00268922 0.001133 0.000656 0 2.23968 0 2650 
1061 1 0.0206316 0.00152908 0.00164545 0.000423 -1.66691 1.28038 -4.76161 2650 
2340 1 0.031543 0.00166139 0.001662 0.000116 0 2.23914 0 2650 
240 1 0.0504839 0.0014469 0.00133733 0.000423 -1.06533 1.37752 -1.50895 2650 
2403 1 0.006528 0.00248338 0.001419 0.000423 0 2.23961 0 2650 
1432 1 0.016035 0.00250834 0.001465 0.000423 0 2.23961 0 2650 
2391 1 0.018068 0.00187154 0.001955 4.2e-05 0 2.23757 0 2650 
692 1 0.038362 0.00172983 0.001808 0.000116 0 2.23824 0 2650 
213 1 0.044271 0.00231702 0.001469 0.000423 0 2.23963 0 2650 
1974 1 0.073895 0.00199805 0.001874 0.000423 0 2.23965 0 2650 
886 1 0.0828933 0.00194637 0.00182267 0.000423 -0.821324 2.12897 0.317751 2650 
666 1 0.0837365 0.00193646 0.00128187 0.000423 -0.744671 2.02934 0.0764923 2650 
1136 1 0.0940009 0.00228626 0.00166812 0.000423 0.000643196 2.23497 0.0606212 2650 
355 1 0.111145 0.00193019 0.001866 0.000423 0 2.23961 0 2650 
2142 1 0.126502 0.001985 0.001576 0.000656 0 2.23969 0 2650 
892 1 0.0237754 0.00298943 0.00146819 0.000423 1.66691 2.81557 -4.09487 2650 
1066 1 0.011114 0.00144846 0.002419 0.000116 0 2.23825 0 2650 
2298 1 0.077914 0.00167533 0.002756 0.000116 0 2.23849 0 2650 
2049 1 0.084987 0.00142832 0.002439 0.000116 0 2.23825 0 2650 
1752 1 0.130965 0.00168515 0.002114 4.2e-05 0 2.23579 0 2650 
1356 1 0.138167 0.00137265 0.00252843 0.000423 1.10502 1.29652 -1.48652 2650 
1664 1 0.158101 0.00139277 0.002099 0.000116 0 2.23815 0 2650 
1274 1 0.018553 0.0019219 0.002496 0.000423 0 2.23965 0 2650 
1776 1 0.021661 0.00212526 0.002691 0.000116 0 2.23849 0 2650 
1138 1 0.101697 0.00189884 0.002616 0.000423 0 2.23961 0 2650 
1422 1 0.104327 0.00218507 0.002201 0.000116 0 2.23815 0 2650 
652 1 0.10982 0.00225621 0.002424 0.000423 0 2.23961 0 2650 
985 1 0.116858 0.0020232 0.002415 0.000116 0 2.23917 0 2650 
94 1 0.127492 0.00206398 0.002577 0.000116 0 2.23825 0 2650 
2089 1 0.055205 0.00156218 0.003367 4.2e-05 0 2.23579 0 2650 
2459 1 0.074324 0.00158749 0.003444 0.000116 0 2.23815 0 2650 
95 1 0.130133 0.00118464 0.00301713 0.000116 -4.06674 0.294724 -1.33682 2650 
658 1 0.150029 0.00145893 0.003124 0.000116 0 2.23918 0 2650 
1524 1 0.0221821 0.00234728 0.00301379 0.000423 0.0794613 2.08506 -0.0358902 2650 
2050 1 0.0487439 0.00194519 0.00351311 0.000423 -5.51865 -1.1639 -1.19652 2650 
840 1 0.080646 0.00174863 0.003038 0.000116 0 2.23815 0 2650 
2174 1 0.086202 0.0021025 0.003033 0.000116 0 2.23914 0 2650 
254 1 0.0943 0.00203064 0.003434 0.000116 0 2.23815 0 2650 
361 1 0.001268 0.00158973 0.003827 0.000116 0 2.23815 0 2650 
585 1 0.143349 0.00148752 0.004178 4.2e-05 0 2.2374 0 2650 
365 1 0.014662 0.0021274 0.003871 0.000656 0 2.23971 0 2650 
1606 1 0.035843 0.00176702 0.003632 0.000423 0 2.23961 0 2650 
2047 1 0.0422399 0.00191515 0.00404677 0.000423 -0.109297 2.17458 0.0815035 2650 
1764 1 0.1048 0.00205241 0.003935 0.000423 0 2.23961 0 2650 
824 1 0.126159 0.00246502 0.003789 0.000423 0 2.23948 0 2650 
648 1 0.133948 0.00227174 0.00427143 0.000423 0.0838685 2.08917 0.0275692 2650 
1816 1 0.147786 0.00229525 0.003726 0.000423 0 2.23961 0 2650 
980 1 0.06939 0.00279672 0.003991 0.000656 0 2.23968 0 2650 
1932 1 0.141016 0.00267483 0.003702 0.000656 0 2.23969 0 2650 
300 1 0.0530213 0.000539 0.00493133 0.000423 1.26543 0.145525 1.79239 2650 
176 1 0.001438 0.00136687 0.00443 0.000116 0 2.23815 0 2650 
1208 1 0.0183078 0.00129979 0.00462217 0.000116 -3.89137 0.441907 1.61315 2650 
2182 1 0.0227545 0.00125342 0.00514908 4.2e-05 0.612096 1.88128 2.03166 2650 
1679 1 0.042503 0.00155297 0.005076 0.000116 0 2.23917 0 2650 
1277 1 0.075006 0.00137907 0.005099 0.000116 0 2.23825 0 2650 
1814 1 0.131875 0.0013888 0.004611 0.000116 0 2.23849 0 2650 
424 1 0.061715 0.00174207 0.005053 0.000423 0 2.23961 0 2650 
188 1 0.064849 0.00184374 0.005091 0.000423 0 2.23951 0 2650 
1635 1 0.088691 0.00180791 0.004515 0.000423 0 2.23951 0 2650 
2366 1 0.108993 0.00200986 0.004482 0.000423 0 2.23961 0 2650 
2258 1 0.115895 0.0021549 0.00444 0.000656 0 2.23969 0 2650 
573 1 0.117631 0.00191097 0.005072 4.2e-05 0 2.23579 0 2650 
1123 1 0.134858 0.00223863 0.004516 0.000423 0 2.23963 0 2650 
345 1 0.146378 0.00232917 0.004988 0.000423 0 2.23961 0 2650 
1883 1 0.158442 0.00206097 0.004964 0.000423 0 2.23951 0 2650 
1446 1 0.033447 0.0016985 0.005416 0.000116 0 2.23824 0 2650 
1659 1 0.055425 0.00135445 0.005474 0.000116 0 2.23825 0 2650 
1806 1 0.067083 0.00246054 0.005229 0.000423 0 2.23948 0 2650 
1040 1 0.099414 0.00251335 0.005841 0.000423 0 2.23951 0 2650 
881 1 0.115663 0.00191944 0.00580082 0.000656 0.207126 -0.626163 -2.2878 2650 
916 1 0.135599 0.000616651 0.00598347 0.000423 -1.264 0.226579 1.70038 2650 
1819 1 0.038335 0.00141963 0.006672 0.000116 0 2.23815 0 2650 
1627 1 0.076565 0.00162106 0.006259 0.000116 0 2.23815 0 2650 
218 1 0.080191 0.00171647 0.006156 0.000423 0 2.23961 0 2650 
1963 1 0.083996 0.00133876 0.006477 4.2e-05 0 2.23441 0 2650 
1852 1 0.154146 0.00170784 0.005953 0.000423 0 2.23963 0 2650 
104 1 0.020242 0.00183326 0.006244 0.000423 0 2.23963 0 2650 
831 1 0.025684 0.00227733 0.00637 0.000423 0 2.23961 0 2650 
628 1 0.073589 0.00173943 0.006621 0.000423 0 2.23948 0 2650 
1820 1 0.09489 0.00202499 0.006065 4.2e-05 0 2.23579 0 2650 
352 1 0.10176 0.00189975 0.00626166 0.000423 0.453302 1.57283 -1.58017 2650 
2111 1 0.136698 0.00199133 0.006144 0.000423 0 2.23965 0 2650 
1410 1 0.150839 0.00184613 0.006562 4.2e-05 0 2.23579 0 2650 
779 1 0.0607913 0.00446015 0.00612516 0.000423 3.85388 4.10676 0.835576 2650 
960 1 0.00685 0.00136815 0.006958 0.000116 0 2.23815 0 2650 
1810 1 0.043944 0.00140716 0.007253 0.000116 0 2.23815 0 2650 
1233 1 0.008632 0.00181015 0.007405 0.000423 0 2.23951 0 2650 
1909 1 0.018376 0.00216249 0.007196 0.000423 0 2.23963 0 2650 
2425 1 0.026329 0.00183503 0.006758 0.000116 0 2.23824 0 2650 
2385 1 0.0277208 0.00224326 0.00723569 0.000423 -0.879729 2.50774 -2.04498 2650 
1531 1 0.029084 0.00214328 0.007413 0.000423 0 2.23961 0 2650 
1307 1 0.035736 0.00200355 0.006764 0.000116 0 2.23825 0 2650 
2234 1 0.053132 0.00250421 0.007104 0.000423 0 2.23965 0 2650 
575 1 0.113515 0.00182525 0.006827 0.000423 0 2.23961 0 2650 
2128 1 0.115633 0.00190813 0.006908 0.000116 0 2.23849 0 2650 
1387 1 0.140551 0.00176406 0.007306 0.000423 0 2.23948 0 2650 
200 1 0.105648 0.00089255 0.00789969 0.000423 0.247037 0.673181 -0.558684 2650 
2093 1 0.133208 0.00171031 0.007989 0.000423 0 2.23948 0 2650 
554 1 0.003153 0.00189532 0.007568 4.2e-05 0 2.23579 0 2650 
917 1 0.028712 0.00191709 0.008079 0.000116 0 2.23849 0 2650 
2305 1 0.06562 0.00190558 0.00832954 0.000116 0 3.41005 3.88545 2650 
18 1 0.083283 0.00188978 0.007617 0.000116 0 2.23914 0 2650 
1960 1 0.094905 0.00239541 0.008097 0.000423 0 2.23963 0 2650 
1159 1 0.150815 0.00213337 0.007685 0.000423 0 2.23963 0 2650 
706 1 0.0611712 0.00286119 0.00767622 0.000423 0.265473 2.54909 -0.409458 2650 
1946 1 0.09912 0.00164267 0.009084 4.2e-05 0 2.23579 0 2650 
5 1 0.137396 0.00147685 0.008337 0.000116 0 2.23918 0 2650 
1173 1 0.152246 0.00160465 0.009042 4.2e-05 0 2.23441 0 2650 
2264 1 0.159154 0.00148453 0.008714 0.000116 0 2.23815 0 2650 
1517 1 0.004885 0.00233046 0.008365 0.000423 0 2.23963 0 2650 
967 1 0.045216 0.00173377 0.009072 0.000423 0 2.23965 0 2650 
337 1 0.078317 0.001977 0.00903 0.000656 0 2.23968 0 2650 
508 1 0.10106 0.00208077 0.00870454 0.000656 -0.0949987 2.1825 0.331157 2650 
2121 1 0.1556 0.00179269 0.008517 4.2e-05 0 2.23729 0 2650 
366 1 0.039524 0.00251506 0.008361 0.000423 0 2.23961 0 2650 
1353 1 0.135932 0.00257862 0.00907611 0.000656 0.000357376 2.23698 0.000135862 2650 
157 1 0.134735 0.00412423 0.00862109 4.2e-05 -1.36172 3.32842 -0.51768 2650 
165 1 0.041117 0.00159196 0.009537 0.000116 0 2.23815 0 2650 
2015 1 0.098067 0.00149476 0.009838 0.000116 0 2.23918 0 2650 
552 1 0.105007 0.0015076 0.00934861 0.000423 -0.505712 0.411121 1.14369 2650 
784 1 0.123934 0.00144518 0.00958176 0.000423 1.45671 1.77523 -0.546539 2650 
1194 1 0.138262 0.00148506 0.009231 0.000116 0 2.23849 0 2650 
404 1 0.117705 0.00249861 0.009716 0.000423 0 2.23948 0 2650 
1881 1 0.119492 0.00227936 0.009255 0.000656 0 2.23968 0 2650 
1688 1 0.141376 0.00197642 0.009894 0.000656 0 2.23979 0 2650 
1412 1 0.145768 0.0018603 0.009397 0.000116 0 2.23825 0 2650 
1418 1 0.11782 0.00170443 0.010281 0.000116 0 2.23849 0 2650 
212 1 0.148551 0.00170847 0.010262 0.000423 0 2.23961 0 2650 
623 1 0.017229 0.00230956 0.010022 0.000423 0 2.23951 0 2650 
1163 1 0.038505 0.00190151 0.010104 4.2e-05 0 2.23441 0 2650 
691 1 0.065911 0.00183478 0.010344 0.000423 0 2.23951 0 2650 
2294 1 0.067079 0.00245235 0.010632 0.000423 0 2.23961 0 2650 
1455 1 0.0690121 0.00200288 0.0103933 0.000656 -0.0269149 2.24745 -0.02459 2650 
59 1 0.080657 0.00204419 0.010435 0.000656 0 2.23968 0 2650 
177 1 0.102003 0.00198801 0.01063 0.000423 0 2.23948 0 2650 
1335 1 0.129495 0.001982 0.009967 0.000116 0 2.23849 0 2650 
866 1 0.150967 0.00228697 0.010212 0.000423 0 2.23965 0 2650 
605 1 0.119591 0.0036038 0.0106244 0.000116 -0.0400547 6.44819 -0.424471 2650 
2197 1 0.0294565 0.00097394 0.0112704 0.000423 1.04788 1.01169 2.43586 2650 
2373 1 0.056707 0.00141015 0.011468 4.2e-05 0 2.23579 0 2650 
1984 1 0.0692387 0.00169334 0.01124 0.000116 -4.14882 0.630906 4.4473 2650 
1548 1 0.098569 0.0015974 0.010796 0.000116 0 2.23815 0 2650 
2145 1 0.120916 0.00102006 0.010714 0.000423 -1.86021 0.787823 0.697926 2650 
1842 1 0.128813 0.00154049 0.011369 0.000116 0 2.23815 0 2650 
1717 1 0.139512 0.00153396 0.011002 4.2e-05 0 2.23418 0 2650 
1424 1 0.018389 0.00225718 0.010884 0.000423 0 2.23961 0 2650 
859 1 0.020765 0.00208729 0.011218 0.000423 0 2.23961 0 2650 
2442 1 0.061003 0.0020105 0.011176 0.000116 0 2.23815 0 2650 
278 1 0.078922 0.00209616 0.011437 0.000116 0 2.23849 0 2650 
2046 1 0.13135 0.00187348 0.0107697 0.000116 -0.178249 1.93796 -0.108222 2650 
1134 1 0.141049 0.00178755 0.010696 4.2e-05 0 2.23441 0 2650 
972 1 0.159836 0.00185532 0.011222 0.000423 0 2.23961 0 2650 
1886 1 0.024919 0.00136135 0.01171 0.000116 0 2.23914 0 2650 
2390 1 0.033791 0.00152578 0.012191 0.000116 0 2.23815 0 2650 
1733 1 0.093161 0.0014273 0.012041 0.000116 0 2.23815 0 2650 
1899 1 0.095645 0.00137915 0.0118391 0.000116 1.87708 1.92082 0.258428 2650 
460 1 0.003722 0.00211675 0.011587 0.000423 0 2.23965 0 2650 
1542 1 0.041337 0.0024565 0.011979 0.000423 0 2.23961 0 2650 
219 1 0.04317 0.00173616 0.011985 0.000116 0 2.23815 0 2650 
1236 1 0.0936438 0.00210756 0.0115697 0.000423 -0.0535116 2.20749 0.000813506 2650 
2205 1 0.125225 0.00207228 0.012172 0.000116 0 2.23824 0 2650 
966 1 0.140948 0.00214232 0.011888 0.000116 0 2.23825 0 2650 
2067 1 0.141648 0.002482 0.011964 0.000423 0 2.23951 0 2650 
1112 1 0.151852 0.00200436 0.012176 4.2e-05 0 2.2374 0 2650 
67 1 0.096194 0.00269315 0.011854 0.000656 0 2.23979 0 2650 
2040 1 0.0706616 0.0037394 0.0114963 0.000116 -0.83955 4.01824 -1.40681 2650 
650 1 0.134354 7.01478e-05 0.0125938 4.2e-05 3.75537 -0.654127 2.28004 2650 
197 1 0.001978 0.00149513 0.012413 4.2e-05 0 2.23729 0 2650 
489 1 0.047522 0.00170937 0.012445 0.000423 0 2.23951 0 2650 
1205 1 0.074386 0.00138952 0.012556 0.000116 0 2.23918 0 2650 
2175 1 0.099879 0.00155839 0.012522 0.000116 0 2.23815 0 2650 
1598 1 0.140638 0.00138579 0.012616 0.000116 0 2.23825 0 2650 
2495 1 0.004327 0.00199514 0.013029 0.000423 0 2.23961 0 2650 
895 1 0.045265 0.00211138 0.012269 0.000656 0 2.23968 0 2650 
597 1 0.052746 0.00220076 0.012275 0.000423 0 2.23948 0 2650 
738 1 0.077063 0.0019654 0.012617 0.000423 0 2.23963 0 2650 
294 1 0.083181 0.00194994 0.012766 0.000423 0 2.23948 0 2650 
794 1 0.101794 0.00197642 0.012964 0.000656 0 2.23979 0 2650 
723 1 0.135627 0.00207093 0.012992 0.000116 0 2.23815 0 2650 
1396 1 0.149437 0.00247286 0.012358 0.000423 0 2.23965 0 2650 
265 1 0.051603 0.00153878 0.013845 0.000116 0 2.23849 0 2650 
459 1 0.065523 0.00153377 0.013362 0.000116 0 2.23815 0 2650 
1241 1 0.080082 0.00138131 0.01365 0.000116 0 2.23825 0 2650 
1385 1 0.09883 0.00161121 0.013076 0.000116 0 2.23824 0 2650 
1348 1 0.132843 0.00145005 0.013729 0.000116 0 2.23824 0 2650 
1284 1 0.020685 0.00248051 0.013078 0.000423 0 2.23963 0 2650 
1719 1 0.032653 0.00181758 0.013588 0.000423 0 2.23963 0 2650 
2120 1 0.056455 0.00242291 0.013138 0.000423 0 2.23961 0 2650 
954 1 0.0719297 0.00199921 0.0136212 0.000656 0.00469377 2.2299 0.00786524 2650 
2302 1 0.075182 0.00184189 0.013287 0.000423 0 2.23961 0 2650 
2436 1 0.084941 0.0019085 0.013757 0.000116 0 2.23815 0 2650 
1833 1 0.115349 0.00230602 0.013093 0.000423 0 2.23948 0 2650 
1601 1 0.129629 0.00181354 0.013243 0.000116 0 2.23815 0 2650 
1649 1 0.14757 0.0023439 0.013797 0.000423 0 2.23963 0 2650 
2243 1 0.046104 0.00280249 0.013449 0.000656 0 2.23969 0 2650 
27 1 0.030797 0.00162556 0.014592 0.000116 0 2.23914 0 2650 
48 1 0.035058 0.0016291 0.013916 0.000116 0 2.23917 0 2650 
152 1 0.048531 0.00137478 0.014359 0.000116 0 2.23914 0 2650 
1931 1 0.102655 0.001276 0.014112 4.2e-05 0 2.23579 0 2650 
630 1 0.10425 0.00153063 0.014428 0.000116 0 2.23824 0 2650 
790 1 0.126922 0.0013815 0.01428 0.000116 0 2.23914 0 2650 
2097 1 0.157939 0.00156583 0.014523 4.2e-05 0 2.2374 0 2650 
1801 1 0.010927 0.00207311 0.014115 0.000423 0 2.23948 0 2650 
610 1 0.039545 0.00219087 0.013854 0.000423 0 2.23951 0 2650 
412 1 0.055062 0.00246898 0.014355 0.000423 0 2.23961 0 2650 
1452 1 0.057611 0.00178892 0.014495 0.000116 0 2.23815 0 2650 
1135 1 0.075772 0.00195666 0.014316 0.000423 0 2.23948 0 2650 
1458 1 0.142812 0.00197935 0.014111 0.000116 0 2.23914 0 2650 
1257 1 0.1497 0.00204766 0.014178 0.000116 0 2.23824 0 2650 
1535 1 0.114912 0.00279281 0.0140994 0.000423 -0.281499 -3.14964 3.10928 2650 
1002 1 0.008661 0.00140396 0.015305 0.000116 0 2.23815 0 2650 
1998 1 0.04633 0.00136984 0.01483 4.2e-05 0 2.23729 0 2650 
1308 1 0.051143 0.00148804 0.015138 0.000116 0 2.23918 0 2650 
724 1 0.051952 0.00156287 0.015061 0.000116 0 2.23914 0 2650 
1484 1 0.053459 0.00140396 0.015164 0.000116 0 2.23815 0 2650 
616 1 0.060796 0.00166359 0.014808 0.000116 0 2.23815 0 2650 
2042 1 0.087817 0.00143849 0.015033 0.000116 0 2.23815 0 2650 
1790 1 0.014573 0.00212489 0.015413 0.000116 0 2.23914 0 2650 
1160 1 0.068631 0.00179895 0.014917 0.000423 0 2.23951 0 2650 
1207 1 0.0965792 0.00216033 0.0153073 0.000656 -0.0548809 2.24356 0.0566914 2650 
211 1 0.124407 0.00237587 0.0149 0.000423 0 2.23961 0 2650 
2335 1 0.133151 0.00215415 0.01467 0.000423 0 2.23961 0 2650 
146 1 0.156933 0.00253727 0.015215 0.000656 0 2.23971 0 2650 
64 1 0.050143 0.00148006 0.015685 0.000116 0 2.23815 0 2650 
2177 1 0.11132 0.00172281 0.015853 0.000423 0 2.23951 0 2650 
1673 1 0.014714 0.00215319 0.015963 0.000423 0 2.23961 0 2650 
711 1 0.0251617 0.0019453 0.0161265 0.000423 -0.046851 2.25189 0.0392278 2650 
934 1 0.0258854 0.00180796 0.0155206 0.000423 0.0468657 2.22742 -0.0392401 2650 
314 1 0.09027 0.00201945 0.016032 0.000116 0 2.23815 0 2650 
783 1 0.124383 0.00248445 0.01615 0.000656 0 2.23969 0 2650 
418 1 0.149012 0.00179447 0.015862 0.000423 0 2.23951 0 2650 
2091 1 0.104942 0.00271105 0.0161667 0.000656 0.187785 2.42918 -0.212499 2650 
2246 1 0.079128 0.00130524 0.016383 4.2e-05 0 2.23441 0 2650 
413 1 0.0168552 0.00201796 0.0167969 0.000656 0.33165 1.88219 -0.708339 2650 
587 1 0.04028 0.00195992 0.016356 4.2e-05 0 2.23441 0 2650 
1602 1 0.042847 0.00204111 0.016354 0.000116 0 2.23917 0 2650 
57 1 0.057367 0.00172863 0.016604 0.000423 0 2.23961 0 2650 
1809 1 0.084202 0.00215991 0.016295 0.000423 0 2.23961 0 2650 
1255 1 0.104751 0.00177914 0.016879 0.000423 1.88538 1.03715 0.0182326 2650 
1979 1 0.148755 0.00230549 0.016686 0.000423 0 2.23961 0 2650 
1440 1 0.051411 0.00263675 0.016331 0.000656 0 2.23969 0 2650 
2192 1 0.0277557 0.00432726 0.0164725 0.000656 -5.52324 -1.60921 -1.05333 2650 
922 1 0.101104 0.00466025 0.0169609 0.000423 -1.17207 -1.49146 -0.105247 2650 
582 1 0.145357 0.000895646 0.0171469 0.000423 -1.37323 0.61928 -0.0583622 2650 
88 1 0.148502 0.000904429 0.0172806 0.000423 1.60152 0.903831 0.0680646 2650 
1739 1 0.08215 0.00133762 0.01734 4.2e-05 0 2.2374 0 2650 
2474 1 0.083353 0.00171034 0.017263 0.000116 0 2.23825 0 2650 
290 1 0.090462 0.00154569 0.017451 4.2e-05 0 2.2374 0 2650 
753 1 0.106579 0.00160817 0.017074 0.000116 0 2.23849 0 2650 
269 1 0.115081 0.0014873 0.017289 0.000116 0 2.23849 0 2650 
1589 1 0.13054 0.0015776 0.01743 0.000116 0 2.23917 0 2650 
1439 1 0.160999 0.00139673 0.017183 4.2e-05 0 2.23579 0 2650 
198 1 0.073518 0.00233589 0.017315 0.000423 0 2.23961 0 2650 
505 1 0.079356 0.00176629 0.017099 0.000116 0 2.23825 0 2650 
1537 1 0.088848 0.00212889 0.017169 0.000423 0 2.23963 0 2650 
897 1 0.133624 0.00208011 0.017326 0.000116 0 2.23914 0 2650 
1481 1 0.104159 0.00148501 0.0182755 0.000116 0.99118 2.16272 0.844179 2650 
943 1 0.039469 0.00218603 0.018546 0.000116 0 2.23815 0 2650 
2486 1 0.042163 0.00218231 0.018514 0.000423 0 2.23961 0 2650 
1887 1 0.063275 0.0023439 0.018064 0.000423 0 2.23963 0 2650 
1304 1 0.082867 0.00218415 0.018006 0.000423 0 2.23951 0 2650 
1211 1 0.099148 0.00179845 0.018421 0.000116 0 2.23849 0 2650 
359 1 0.125342 0.00179539 0.018465 0.000116 0 2.23825 0 2650 
1140 1 0.138518 0.0019049 0.0180623 0.000423 0.0665955 2.2499 0.235381 2650 
770 1 0.087399 0.00159292 0.018895 0.000116 0 2.23815 0 2650 
976 1 0.091588 0.00172153 0.019221 0.000116 0 2.23825 0 2650 
217 1 0.11624 0.00160895 0.01924 0.000116 0 2.23917 0 2650 
72 1 0.01798 0.00173431 0.019191 0.000116 0 2.23824 0 2650 
1129 1 0.030015 0.00205302 0.019214 0.000116 0 2.23815 0 2650 
1058 1 0.033484 0.00173393 0.018874 0.000116 0 2.23815 0 2650 
1271 1 0.034605 0.00237003 0.019326 0.000423 0 2.23951 0 2650 
1782 1 0.109585 0.00218999 0.018854 0.000423 0 2.23961 0 2650 
103 1 0.134585 0.00218347 0.01865 0.000116 0 2.23849 0 2650 
2290 1 0.058947 0.00269243 0.018645 0.000656 0 2.23969 0 2650 
1941 1 0.102976 0.00150691 0.019466 0.000116 0 2.23815 0 2650 
467 1 0.008277 0.00231702 0.020141 0.000423 0 2.23963 0 2650 
1380 1 0.012312 0.00193874 0.019777 0.000423 0 2.23948 0 2650 
327 1 0.019879 0.00182654 0.020058 0.000423 0 2.23963 0 2650 
491 1 0.037832 0.00196997 0.020112 0.000116 0 2.23825 0 2650 
863 1 0.056957 0.00247958 0.019571 0.000423 0 2.23965 0 2650 
2453 1 0.070332 0.00218666 0.019926 0.000116 0 2.23917 0 2650 
255 1 0.111674 0.00208207 0.019727 0.000423 0 2.23948 0 2650 
635 1 0.124633 0.00218999 0.019499 0.000423 0 2.23961 0 2650 
1191 1 0.147173 0.00210874 0.019927 0.000423 0 2.23963 0 2650 
1989 1 0.0490911 0.00451781 0.019573 0.000656 9.86321 -0.357185 1.12485 2650 
600 1 0.015062 0.000909789 0.0206441 0.000423 -1.27421 0.60509 2.80788 2650 
1493 1 0.0144791 0.0017253 0.0207762 0.000423 -0.0310642 2.26977 0.0333687 2650 
2354 1 0.0145789 0.00123193 0.0205052 0.000116 -1.42987 1.34357 0.462308 2650 
1217 1 0.018898 0.00171161 0.020259 0.000423 0 2.23951 0 2650 
2245 1 0.084222 0.00148898 0.020706 0.000116 0 2.23914 0 2650 
2433 1 0.120631 0.00155839 0.020189 0.000116 0 2.23914 0 2650 
809 1 0.022569 0.00192243 0.020657 0.000116 0 2.23917 0 2650 
1065 1 0.027926 0.00242323 0.020581 0.000423 0 2.23961 0 2650 
37 1 0.034376 0.00181041 0.020581 0.000116 0 2.23824 0 2650 
2085 1 0.051831 0.0021593 0.02068 0.000423 0 2.23965 0 2650 
1643 1 0.072452 0.0024303 0.020494 0.000423 0 2.23965 0 2650 
2372 1 0.083067 0.00184182 0.020627 0.000116 0 2.23917 0 2650 
1849 1 0.097369 0.00224406 0.02094 0.000423 0 2.23961 0 2650 
888 1 0.136044 0.00187644 0.020613 0.000423 0 2.23961 0 2650 
1861 1 0.14233 0.00173801 0.020248 0.000116 0 2.23849 0 2650 
501 1 0.149638 0.00182809 0.020687 4.2e-05 0 2.23441 0 2650 
231 1 0.151138 0.00196092 0.020606 0.000423 0 2.23963 0 2650 
1067 1 0.0164613 0.00279268 0.0203993 0.000423 -0.390084 2.45924 -0.821365 2650 
2139 1 0.0959189 0.00346054 0.0209284 0.000423 -3.3797 -1.7183 1.96296 2650 
2423 1 0.0355309 0.00107942 0.0216853 0.000423 -0.856805 1.52038 2.07117 2650 
2172 1 0.121251 0.00146043 0.021576 0.000116 0 2.23849 0 2650 
111 1 0.145579 0.00135299 0.021193 0.000116 0 2.23849 0 2650 
1388 1 0.0444297 0.00216007 0.0216064 0.000116 0.735179 3.99846 -1.18265 2650 
2451 1 0.048261 0.00180766 0.021077 4.2e-05 0 2.23441 0 2650 
15 1 0.048347 0.00214317 0.021217 0.000116 0 2.23849 0 2650 
746 1 0.081277 0.00173353 0.020981 0.000116 0 2.23849 0 2650 
429 1 0.08347 0.00182206 0.021246 0.000423 0 2.23963 0 2650 
1292 1 0.094998 0.00173976 0.021521 0.000116 0 2.23914 0 2650 
1669 1 0.13613 0.00177432 0.02153 0.000423 0 2.23951 0 2650 
2349 1 0.144223 0.00194491 0.021596 0.000423 0 2.23961 0 2650 
2094 1 0.153133 0.00250421 0.021671 0.000423 0 2.23965 0 2650 
2223 1 0.0632354 0.000854991 0.0223201 0.000423 -0.661647 1.47788 -1.24832 2650 
414 1 0.066167 0.00137619 0.021955 0.000116 0 2.23824 0 2650 
2096 1 0.096139 0.0015278 0.022521 4.2e-05 0 2.2374 0 2650 
2123 1 0.020135 0.00191803 0.022133 0.000423 0 2.23961 0 2650 
751 1 0.020676 0.00174472 0.022507 0.000116 0 2.23849 0 2650 
2210 1 0.034314 0.0017433 0.022213 0.000116 0 2.23917 0 2650 
2416 1 0.041036 0.0020121 0.021765 0.000423 0 2.23961 0 2650 
674 1 0.0429118 0.002058 0.0219071 0.000656 -0.0200186 2.22175 -0.0293668 2650 
1243 1 0.061472 0.00208536 0.021782 4.2e-05 0 2.23579 0 2650 
493 1 0.126871 0.00211248 0.022504 0.000423 0 2.23951 0 2650 
1994 1 0.142649 0.00223702 0.022027 0.000423 0 2.23961 0 2650 
1560 1 0.145212 0.00232728 0.022301 0.000423 0 2.23965 0 2650 
396 1 0.0959308 0.0029099 0.0224914 4.2e-05 2.60542 -4.90709 13.1708 2650 
1153 1 0.0187037 0.00453019 0.0219325 0.000116 -7.43503 -3.80026 -3.91947 2650 
249 1 0.022254 0.00136418 0.0233 0.000116 0 2.23849 0 2650 
993 1 0.028135 0.00163225 0.023309 0.000116 0 2.23815 0 2650 
2270 1 0.000832 0.00188383 0.023295 0.000423 0 2.23965 0 2650 
38 1 0.0177896 0.00215486 0.0231963 0.000423 0.390905 2.01984 0.823094 2650 
1986 1 0.066282 0.00200206 0.022706 4.2e-05 0 2.23441 0 2650 
2314 1 0.076991 0.0021857 0.022691 0.000116 0 2.23849 0 2650 
1246 1 0.080504 0.0021177 0.023289 0.000116 0 2.23825 0 2650 
1504 1 0.095192 0.00187597 0.022785 0.000116 0 2.23825 0 2650 
1895 1 0.107656 0.00207011 0.023279 4.2e-05 0 2.23729 0 2650 
1118 1 0.119151 0.00195738 0.022741 0.000116 0 2.23849 0 2650 
1642 1 0.137147 0.00187711 0.023316 0.000423 0 2.23965 0 2650 
646 1 0.140105 0.00206457 0.023238 0.000423 0 2.23961 0 2650 
82 1 0.154961 0.00200275 0.023145 0.000423 0 2.23951 0 2650 
923 1 0.161252 0.00184769 0.023014 0.000116 0 2.23849 0 2650 
2056 1 0.15646 0.000682816 0.0233687 0.000116 0.234862 1.0986 -3.43682 2650 
1263 1 0.073086 0.00172191 0.023941 0.000423 0 2.23961 0 2650 
446 1 0.101555 0.00143747 0.023987 4.2e-05 0 2.2376 0 2650 
400 1 0.131378 0.0013943 0.023773 4.2e-05 0 2.23441 0 2650 
2115 1 0.016765 0.00180369 0.02409 0.000116 0 2.23824 0 2650 
518 1 0.03397 0.00190098 0.023721 0.000116 0 2.23914 0 2650 
1937 1 0.043278 0.00195589 0.023552 0.000116 0 2.23824 0 2650 
1456 1 0.076694 0.00215884 0.023974 0.000116 0 2.23849 0 2650 
879 1 0.116971 0.00207239 0.023556 4.2e-05 0 2.23418 0 2650 
1812 1 0.145705 0.001943 0.02396 0.000423 0 2.23963 0 2650 
2136 1 0.002327 0.00136642 0.024891 0.000116 0 2.23849 0 2650 
1583 1 0.0231284 0.00169203 0.0242707 0.000423 -0.153549 2.05382 -0.0767161 2650 
2381 1 0.054499 0.00146043 0.024569 0.000116 0 2.23849 0 2650 
958 1 0.054851 0.00165373 0.024231 0.000116 0 2.23824 0 2650 
828 1 0.159183 0.00166363 0.024535 0.000116 0 2.23914 0 2650 
339 1 0.035201 0.00193758 0.024381 0.000423 0 2.23965 0 2650 
617 1 0.041439 0.00234539 0.024608 0.000423 0 2.23951 0 2650 
1056 1 0.129981 0.00207945 0.024264 0.000656 0 2.23979 0 2650 
2269 1 0.138223 0.00220343 0.024436 0.000423 0 2.23961 0 2650 
47 1 0.085962 0.00252401 0.024809 0.000423 0 2.23961 0 2650 
544 1 0.096732 0.00262555 0.024122 0.000656 0 2.23969 0 2650 
1225 1 0.148005 0.00278776 0.024592 0.000656 0 2.23968 0 2650 
23 1 0.0926288 0.0039279 0.0248363 0.000423 0.476252 4.46805 -3.05356 2650 
2405 1 0.119159 0.00342259 0.0244862 0.000423 0 4.24527 -3.67928 2650 
2375 1 0.039706 0.00156864 0.024993 0.000116 0 2.23917 0 2650 
2356 1 0.082785 0.00147334 0.025415 0.000116 0 2.23815 0 2650 
331 1 0.008847 0.0021551 0.025112 0.000116 0 2.23824 0 2650 
1340 1 0.0433295 0.00178326 0.025568 0.000656 -4.46023 1.81539 -3.18436 2650 
1935 1 0.054785 0.00217388 0.025329 0.000116 0 2.23815 0 2650 
1374 1 0.063237 0.00193659 0.0253714 0.000423 -0.200178 2.24298 0.113202 2650 
719 1 0.0648803 0.00250233 0.0252719 0.000656 0.244649 2.443 0.295326 2650 
437 1 0.068747 0.00233255 0.024959 0.000656 0 2.23979 0 2650 
1104 1 0.096386 0.00229077 0.025692 0.000423 0 2.23961 0 2650 
721 1 0.0987197 0.00248889 0.0250064 0.000656 -6.18228 2.72922 -3.54695 2650 
1745 1 0.10678 0.0018639 0.025316 0.000423 0 2.23951 0 2650 
120 1 0.124076 0.00180791 0.025565 0.000423 0 2.23951 0 2650 
2009 1 0.136829 0.00200758 0.0252453 0.000656 0.00332919 2.2293 -0.0206489 2650 
2499 1 0.137558 0.0018166 0.025442 4.2e-05 0 2.23441 0 2650 
2409 1 0.0454689 0.00102207 0.0259902 0.000116 0.231174 1.28515 -0.928459 2650 
2469 1 0.071532 0.00135239 0.025811 0.000116 0 2.23914 0 2650 
130 1 0.115638 0.00167164 0.026445 0.000116 0 2.23824 0 2650 
2126 1 0.133494 0.00165609 0.025818 4.2e-05 0 2.23579 0 2650 
1942 1 0.145658 0.00162702 0.025799 4.2e-05 0 2.23579 0 2650 
2283 1 0.075251 0.00190978 0.026091 0.000116 0 2.23815 0 2650 
930 1 0.077129 0.00198842 0.025773 0.000423 0 2.23961 0 2650 
1025 1 0.086945 0.00245726 0.025794 0.000656 0 2.23969 0 2650 
1319 1 0.091555 0.00173215 0.0258 0.000423 0 2.23961 0 2650 
631 1 0.153063 0.00212462 0.025957 0.000423 0 2.23948 0 2650 
86 1 0.158832 0.00178006 0.026032 0.000116 0 2.23914 0 2650 
2149 1 0.020829 0.00171961 0.02721 0.000116 0 2.23914 0 2650 
2030 1 0.02889 0.00148773 0.02685 0.000116 0 2.23815 0 2650 
817 1 0.075874 0.00138962 0.026873 0.000116 0 2.23824 0 2650 
1490 1 0.010825 0.00217722 0.026744 0.000423 0 2.23965 0 2650 
70 1 0.049569 0.00241686 0.027006 0.000423 0 2.23965 0 2650 
1638 1 0.051593 0.00237215 0.026922 0.000656 0 2.23969 0 2650 
1777 1 0.057211 0.00210222 0.026905 0.000423 0 2.23948 0 2650 
1117 1 0.089455 0.00199962 0.026925 0.000423 0 2.23961 0 2650 
2262 1 0.110514 0.00214328 0.026869 0.000423 0 2.23961 0 2650 
977 1 0.13334 0.00208473 0.026793 4.2e-05 0 2.23441 0 2650 
428 1 0.156237 0.0021484 0.0266208 0.000423 -0.00616357 2.16611 0.0901936 2650 
2058 1 0.131912 0.000536254 0.0278361 0.000423 0.102184 0.31798 -2.00204 2650 
458 1 0.023778 0.00145901 0.02804 0.000116 0 2.23824 0 2650 
944 1 0.0580187 0.00119897 0.0279967 0.000116 4.01799 1.62777 -3.43374 2650 
266 1 0.0748494 0.0016047 0.0272768 0.000423 -8.38609 1.62118 -0.670984 2650 
1195 1 0.159417 0.00155688 0.027491 4.2e-05 0 2.2374 0 2650 
1722 1 0.015485 0.001792 0.02792 0.000423 0 2.23965 0 2650 
1929 1 0.092846 0.00216246 0.027856 0.000116 0 2.23825 0 2650 
1086 1 0.110601 0.00245718 0.027997 0.000423 0 2.23965 0 2650 
571 1 0.123616 0.00185661 0.027453 0.000423 0 2.23961 0 2650 
1400 1 0.131684 0.00217295 0.027456 0.000423 0 2.23951 0 2650 
2107 1 0.138375 0.00203423 0.027461 0.000116 0 2.23824 0 2650 
441 1 0.136307 0.000825954 0.028484 0.000116 -0.601663 1.16007 3.73175 2650 
1076 1 0.006655 0.0013256 0.028645 4.2e-05 0 2.23763 0 2650 
1662 1 0.009982 0.00146759 0.028422 0.000116 0 2.23815 0 2650 
2059 1 0.066155 0.00129407 0.028516 4.2e-05 0 2.23441 0 2650 
318 1 0.0773909 0.00159206 0.0282617 0.000423 -0.877916 1.89525 -0.233834 2650 
1320 1 0.088834 0.00156196 0.028395 0.000116 0 2.23824 0 2650 
882 1 0.08832 0.00167254 0.028089 0.000116 0 2.23815 0 2650 
1562 1 0.106581 0.00156896 0.028147 4.2e-05 0 2.23729 0 2650 
567 1 0.012167 0.00201633 0.028577 0.000116 0 2.23824 0 2650 
1740 1 0.044597 0.00185031 0.028771 0.000116 0 2.23815 0 2650 
2359 1 0.065394 0.00204292 0.028807 0.000656 0 2.23969 0 2650 
261 1 0.068779 0.00178328 0.028837 0.000423 0 2.23951 0 2650 
271 1 0.023654 0.00167757 0.02955 0.000116 0 2.23849 0 2650 
682 1 0.088745 0.0013746 0.029072 0.000116 0 2.23825 0 2650 
2494 1 0.112264 0.00135472 0.029261 0.000116 0 2.23815 0 2650 
1470 1 0.12141 0.00164502 0.029441 4.2e-05 0 2.23729 0 2650 
66 1 0.028179 0.00202139 0.028997 0.000423 0 2.23963 0 2650 
1763 1 0.047656 0.002429 0.029583 0.000423 0 2.23963 0 2650 
956 1 0.077236 0.00205785 0.029149 0.000423 0 2.23961 0 2650 
1622 1 0.148534 0.00185926 0.028927 0.000116 0 2.23815 0 2650 
431 1 0.152539 0.00205386 0.029046 0.000656 0 2.23979 0 2650 
1930 1 0.155149 0.00177301 0.029092 0.000116 0 2.23825 0 2650 
1915 1 0.030283 0.00279129 0.029516 0.000656 0 2.23969 0 2650 
935 1 0.144771 0.00351418 0.0291954 0.000423 -1.69996 3.44644 -4.23994 2650 
2480 1 0.014403 0.0017069 0.029889 0.000423 0 2.23965 0 2650 
620 1 0.130104 0.00170713 0.029694 0.000423 0 2.23951 0 2650 
1089 1 0.0312858 0.00191941 0.0299487 0.000423 -2.35046 -2.96895 -9.90041 2650 
709 1 0.0731 0.00203813 0.030266 4.2e-05 0 2.23441 0 2650 
1177 1 0.0792124 0.00189593 0.0302122 0.000423 0.940171 1.44594 1.16025 2650 
1489 1 0.085601 0.00249681 0.029983 0.000423 0 2.23961 0 2650 
2170 1 0.091337 0.00238686 0.030379 0.000656 0 2.23968 0 2650 
71 1 0.106422 0.0017939 0.030376 0.000423 0 2.23961 0 2650 