ITEM: TIMESTEP
75000
ITEM: NUMBER OF ATOMS
2466
ITEM: BOX BOUNDS ff ff ff
-0.005905 0.167905
-0.000656 0.011154
-0.005905 0.167905
ITEM: ATOMS id type x y z radius vx vy vz density 
1756 1 0.004144 0.000841742 0.000832 0.000423 0 2.23961 0 2650 
2078 1 0.019324 0.000749484 0.000953 0.000116 0 2.23824 0 2650 
1188 1 0.020639 0.00066801 0.000927 0.000116 0 2.23849 0 2650 
65 1 0.027038 0.000391366 0.001133 0.000116 0 2.23824 0 2650 
2317 1 0.014297 0.00149923 0.001071 0.000423 0 2.23961 0 2650 
1551 1 0.0856574 0.00162285 0.000913245 0.000656 0.551287 1.97103 -0.133068 2650 
84 1 0.108185 0.00168136 0.001133 0.000656 0 2.23968 0 2650 
820 1 0.110174 0.00116146 0.001096 0.000656 0 2.2398 0 2650 
2391 1 0.018068 0.000864632 0.001955 4.2e-05 0 2.23757 0 2650 
2340 1 0.031543 0.000653777 0.001662 0.000116 0 2.23914 0 2650 
692 1 0.038362 0.000722625 0.001808 0.000116 0 2.23824 0 2650 
355 1 0.111145 0.000922368 0.001866 0.000423 0 2.23961 0 2650 
2403 1 0.006528 0.00147555 0.001419 0.000423 0 2.23961 0 2650 
1432 1 0.016035 0.00150051 0.001465 0.000423 0 2.23961 0 2650 
213 1 0.044271 0.00130919 0.001469 0.000423 0 2.23963 0 2650 
1974 1 0.073895 0.000990208 0.001874 0.000423 0 2.23965 0 2650 
886 1 0.0832629 0.000988336 0.00167968 0.000423 -0.821324 2.12897 0.317751 2650 
666 1 0.0840716 0.00102325 0.00124745 0.000423 -0.744671 2.02934 0.0764923 2650 
1136 1 0.0940006 0.00128052 0.00164085 0.000423 0.000643196 2.23497 0.0606212 2650 
2142 1 0.126502 0.000977144 0.001576 0.000656 0 2.23969 0 2650 
1066 1 0.011114 0.000441248 0.002419 0.000116 0 2.23825 0 2650 
1274 1 0.018553 0.00091406 0.002496 0.000423 0 2.23965 0 2650 
1370 1 0.0441775 0.000549613 0.00260186 0.000116 5.56923 1.60978 -4.153 2650 
240 1 0.0509633 0.000827022 0.00201636 0.000423 -1.06533 1.37752 -1.50895 2650 
2298 1 0.077914 0.00066801 0.002756 0.000116 0 2.23849 0 2650 
2049 1 0.084987 0.000421103 0.002439 0.000116 0 2.23825 0 2650 
1138 1 0.101697 0.000891014 0.002616 0.000423 0 2.23961 0 2650 
1752 1 0.130965 0.000679044 0.002114 4.2e-05 0 2.23579 0 2650 
1664 1 0.158101 0.0003856 0.002099 0.000116 0 2.23815 0 2650 
1776 1 0.021661 0.00111795 0.002691 0.000116 0 2.23849 0 2650 
1422 1 0.104327 0.00117791 0.002201 0.000116 0 2.23815 0 2650 
652 1 0.10982 0.00124839 0.002424 0.000423 0 2.23961 0 2650 
985 1 0.116858 0.00101557 0.002415 0.000116 0 2.23917 0 2650 
94 1 0.127492 0.00105677 0.002577 0.000116 0 2.23825 0 2650 
2089 1 0.055205 0.000556076 0.003367 4.2e-05 0 2.23579 0 2650 
2459 1 0.074324 0.000580319 0.003444 0.000116 0 2.23815 0 2650 
840 1 0.080646 0.000741466 0.003038 0.000116 0 2.23815 0 2650 
1356 1 0.13767 0.000789213 0.00319736 0.000423 1.10502 1.29652 -1.48652 2650 
658 1 0.150029 0.000451302 0.003124 0.000116 0 2.23918 0 2650 
1524 1 0.0221464 0.001409 0.00302994 0.000423 0.0794613 2.08506 -0.0358902 2650 
892 1 0.0230259 0.00171913 0.00330607 0.000423 1.66806 2.80701 -4.10553 2650 
2174 1 0.086202 0.00109489 0.003033 0.000116 0 2.23914 0 2650 
254 1 0.0943 0.00102347 0.003434 0.000116 0 2.23815 0 2650 
361 1 0.001268 0.000582557 0.003827 0.000116 0 2.23815 0 2650 
2182 1 0.022479 0.000406845 0.00423483 4.2e-05 0.612096 1.88128 2.03166 2650 
1606 1 0.035843 0.000759198 0.003632 0.000423 0 2.23961 0 2650 
2047 1 0.042289 0.000936585 0.00401009 0.000423 -0.109297 2.17458 0.0815035 2650 
300 1 0.0524519 0.000473514 0.00412476 0.000423 1.26543 0.145525 1.79239 2650 
990 1 0.107702 0.000460219 0.00381757 0.000116 14.0617 -4.82552 -14.5256 2650 
585 1 0.143349 0.000480694 0.004178 4.2e-05 0 2.2374 0 2650 
365 1 0.014662 0.00111953 0.003871 0.000656 0 2.23971 0 2650 
1208 1 0.020059 0.00110093 0.00389625 0.000116 -3.89137 0.441907 1.61315 2650 
1061 1 0.0213811 0.000961358 0.00378784 0.000423 -1.66806 1.29922 -4.76122 2650 
1764 1 0.1048 0.00104459 0.003935 0.000423 0 2.23961 0 2650 
824 1 0.126159 0.00145725 0.003789 0.000423 0 2.23948 0 2650 
95 1 0.131963 0.00105201 0.00361869 0.000116 -4.06674 0.294724 -1.33682 2650 
648 1 0.133911 0.00133161 0.00425902 0.000423 0.0838685 2.08917 0.0275692 2650 
1932 1 0.141016 0.00166697 0.003702 0.000656 0 2.23969 0 2650 
1816 1 0.147786 0.00128742 0.003726 0.000423 0 2.23961 0 2650 
2050 1 0.0512273 0.00246895 0.00405155 0.000423 -5.51865 -1.1639 -1.19652 2650 
980 1 0.06939 0.00178887 0.003991 0.000656 0 2.23968 0 2650 
176 1 0.001438 0.000359701 0.00443 0.000116 0 2.23815 0 2650 
1679 1 0.042503 0.000545344 0.005076 0.000116 0 2.23917 0 2650 
424 1 0.061715 0.000734241 0.005053 0.000423 0 2.23961 0 2650 
188 1 0.064849 0.000835964 0.005091 0.000423 0 2.23951 0 2650 
1277 1 0.075006 0.000371862 0.005099 0.000116 0 2.23825 0 2650 
1635 1 0.088691 0.000800132 0.004515 0.000423 0 2.23951 0 2650 
573 1 0.117631 0.00090486 0.005072 4.2e-05 0 2.23579 0 2650 
1814 1 0.131875 0.000381483 0.004611 0.000116 0 2.23849 0 2650 
2366 1 0.108993 0.00100203 0.004482 0.000423 0 2.23961 0 2650 
2258 1 0.115895 0.00114704 0.00444 0.000656 0 2.23969 0 2650 
1123 1 0.134858 0.0012308 0.004516 0.000423 0 2.23963 0 2650 
345 1 0.146378 0.00132134 0.004988 0.000423 0 2.23961 0 2650 
1883 1 0.158442 0.0010532 0.004964 0.000423 0 2.23951 0 2650 
1446 1 0.033447 0.00069129 0.005416 0.000116 0 2.23824 0 2650 
1659 1 0.055425 0.000347241 0.005474 0.000116 0 2.23825 0 2650 
916 1 0.136167 0.000514691 0.0052183 0.000423 -1.264 0.226579 1.70038 2650 
1806 1 0.067083 0.00145277 0.005229 0.000423 0 2.23948 0 2650 
1040 1 0.099414 0.00150558 0.005841 0.000423 0 2.23951 0 2650 
779 1 0.0590571 0.0026121 0.00574915 0.000423 3.85388 4.10676 0.835576 2650 
104 1 0.020242 0.000825429 0.006244 0.000423 0 2.23963 0 2650 
1819 1 0.038335 0.000412458 0.006672 0.000116 0 2.23815 0 2650 
628 1 0.073589 0.000731663 0.006621 0.000423 0 2.23948 0 2650 
1627 1 0.076565 0.000613891 0.006259 0.000116 0 2.23815 0 2650 
218 1 0.080191 0.000708645 0.006156 0.000423 0 2.23961 0 2650 
1963 1 0.083996 0.000333274 0.006477 4.2e-05 0 2.23441 0 2650 
1410 1 0.150839 0.000840022 0.006562 4.2e-05 0 2.23579 0 2650 
1852 1 0.154146 0.00070001 0.005953 0.000423 0 2.23963 0 2650 
831 1 0.025684 0.00126951 0.00637 0.000423 0 2.23961 0 2650 
1820 1 0.09489 0.00101889 0.006065 4.2e-05 0 2.23579 0 2650 
2111 1 0.136698 0.000983489 0.006144 0.000423 0 2.23965 0 2650 
960 1 0.00685 0.00036098 0.006958 0.000116 0 2.23815 0 2650 
1233 1 0.008632 0.000802372 0.007405 0.000423 0 2.23951 0 2650 
2425 1 0.026329 0.000827822 0.006758 0.000116 0 2.23824 0 2650 
1810 1 0.043944 0.000399988 0.007253 0.000116 0 2.23815 0 2650 
2305 1 0.06562 0.00014424 0.00688017 0.000116 0 0.32546 7.32546 2650 
575 1 0.113515 0.000817428 0.006827 0.000423 0 2.23961 0 2650 
2128 1 0.115633 0.000900812 0.006908 0.000116 0 2.23849 0 2650 
1387 1 0.140551 0.000756297 0.007306 0.000423 0 2.23948 0 2650 
1909 1 0.018376 0.00115465 0.007196 0.000423 0 2.23963 0 2650 
1531 1 0.029084 0.00113545 0.007413 0.000423 0 2.23961 0 2650 
1307 1 0.035736 0.000996334 0.006764 0.000116 0 2.23825 0 2650 
2234 1 0.053132 0.00149637 0.007104 0.000423 0 2.23965 0 2650 
352 1 0.101556 0.00119197 0.00697273 0.000423 0.453302 1.57283 -1.58017 2650 
881 1 0.11557 0.00220121 0.00683034 0.000656 0.207126 -0.626163 -2.2878 2650 
554 1 0.003153 0.000889209 0.007568 4.2e-05 0 2.23579 0 2650 
917 1 0.028712 0.000909766 0.008079 0.000116 0 2.23849 0 2650 
18 1 0.083283 0.000882169 0.007617 0.000116 0 2.23914 0 2650 
200 1 0.105537 0.000589619 0.00815109 0.000423 0.247037 0.673181 -0.558684 2650 
2093 1 0.133208 0.00070255 0.007989 0.000423 0 2.23948 0 2650 
2385 1 0.0281167 0.00111477 0.00815593 0.000423 -0.879729 2.50774 -2.04498 2650 
706 1 0.0610517 0.0017141 0.00786048 0.000423 0.265473 2.54909 -0.409458 2650 
1960 1 0.094905 0.00138758 0.008097 0.000423 0 2.23963 0 2650 
1159 1 0.150815 0.00112554 0.007685 0.000423 0 2.23963 0 2650 
967 1 0.045216 0.000725929 0.009072 0.000423 0 2.23965 0 2650 
1946 1 0.09912 0.000636564 0.009084 4.2e-05 0 2.23579 0 2650 
5 1 0.137396 0.000469215 0.008337 0.000116 0 2.23918 0 2650 
1173 1 0.152246 0.000599169 0.009042 4.2e-05 0 2.23441 0 2650 
2121 1 0.1556 0.000785903 0.008517 4.2e-05 0 2.23729 0 2650 
2264 1 0.159154 0.000477364 0.008714 0.000116 0 2.23815 0 2650 
1517 1 0.004885 0.00132263 0.008365 0.000423 0 2.23963 0 2650 
366 1 0.039524 0.00150723 0.008361 0.000423 0 2.23961 0 2650 
337 1 0.078317 0.000969144 0.00903 0.000656 0 2.23968 0 2650 
508 1 0.101102 0.00109865 0.00855552 0.000656 -0.0949987 2.1825 0.331157 2650 
552 1 0.105235 0.00132259 0.00883395 0.000423 -0.505712 0.411121 1.14369 2650 
1353 1 0.135932 0.00157198 0.00907605 0.000656 0.000357376 2.23698 0.000135862 2650 
157 1 0.135348 0.00262644 0.00885404 4.2e-05 -1.36172 3.32842 -0.51768 2650 
165 1 0.041117 0.000584795 0.009537 0.000116 0 2.23815 0 2650 
2015 1 0.098067 0.000487128 0.009838 0.000116 0 2.23918 0 2650 
784 1 0.123278 0.000646327 0.0098277 0.000423 1.45671 1.77523 -0.546539 2650 
1194 1 0.138262 0.000477738 0.009231 0.000116 0 2.23849 0 2650 
1412 1 0.145768 0.000853086 0.009397 0.000116 0 2.23825 0 2650 
404 1 0.117705 0.00149085 0.009716 0.000423 0 2.23948 0 2650 
1881 1 0.119492 0.0012715 0.009255 0.000656 0 2.23968 0 2650 
1688 1 0.141376 0.000968519 0.009894 0.000656 0 2.23979 0 2650 
2197 1 0.028985 0.00051868 0.0101743 0.000423 1.04788 1.01169 2.43586 2650 
1163 1 0.038505 0.000896024 0.010104 4.2e-05 0 2.23441 0 2650 
691 1 0.065911 0.000827006 0.010344 0.000423 0 2.23951 0 2650 
1418 1 0.11782 0.00069711 0.010281 0.000116 0 2.23849 0 2650 
2145 1 0.121753 0.000665538 0.0103999 0.000423 -1.86021 0.787823 0.697926 2650 
212 1 0.148551 0.000700647 0.010262 0.000423 0 2.23961 0 2650 
623 1 0.017229 0.00130178 0.010022 0.000423 0 2.23951 0 2650 
2294 1 0.067079 0.00144452 0.010632 0.000423 0 2.23961 0 2650 
1455 1 0.069014 0.000994438 0.010395 0.000656 0 2.23979 0 2650 
59 1 0.080657 0.00103633 0.010435 0.000656 0 2.23968 0 2650 
177 1 0.102003 0.000980245 0.01063 0.000423 0 2.23948 0 2650 
1335 1 0.129495 0.000974682 0.009967 0.000116 0 2.23849 0 2650 
866 1 0.150967 0.00127912 0.010212 0.000423 0 2.23965 0 2650 
2373 1 0.056707 0.000404042 0.011468 4.2e-05 0 2.23579 0 2650 
1984 1 0.0729409 0.000897148 0.010928 0.000116 -9.05137 2.05137 0 2650 
1548 1 0.098569 0.000590231 0.010796 0.000116 0 2.23815 0 2650 
605 1 0.119613 0.000656713 0.0107372 0.000116 0 5.85016 -1.14604 2650 
1842 1 0.128813 0.000533318 0.011369 0.000116 0 2.23815 0 2650 
1717 1 0.139512 0.000528575 0.011002 4.2e-05 0 2.23418 0 2650 
1134 1 0.141049 0.00078207 0.010696 4.2e-05 0 2.23441 0 2650 
972 1 0.159836 0.000847501 0.011222 0.000423 0 2.23961 0 2650 
1424 1 0.018389 0.00124935 0.010884 0.000423 0 2.23961 0 2650 
859 1 0.020765 0.00107946 0.011218 0.000423 0 2.23961 0 2650 
2442 1 0.061003 0.00100333 0.011176 0.000116 0 2.23815 0 2650 
278 1 0.078922 0.00108885 0.011437 0.000116 0 2.23849 0 2650 
2046 1 0.13143 0.00100139 0.0108184 0.000116 -0.178249 1.93796 -0.108222 2650 
1886 1 0.024919 0.000353732 0.01171 0.000116 0 2.23914 0 2650 
2390 1 0.033791 0.00051861 0.012191 0.000116 0 2.23815 0 2650 
219 1 0.04317 0.000728996 0.011985 0.000116 0 2.23815 0 2650 
1733 1 0.093161 0.000420131 0.012041 0.000116 0 2.23815 0 2650 
1899 1 0.0948003 0.000514785 0.0117228 0.000116 1.87708 1.92082 0.258428 2650 
650 1 0.132664 0.000364505 0.0115677 4.2e-05 3.75537 -0.654127 2.28004 2650 
460 1 0.003722 0.00110891 0.011587 0.000423 0 2.23965 0 2650 
1542 1 0.041337 0.00144868 0.011979 0.000423 0 2.23961 0 2650 
1236 1 0.0936679 0.00111419 0.0115693 0.000423 -0.0535116 2.20749 0.000813506 2650 
67 1 0.096194 0.00168525 0.011854 0.000656 0 2.23979 0 2650 
2205 1 0.125225 0.00106508 0.012172 0.000116 0 2.23824 0 2650 
966 1 0.140948 0.00113511 0.011888 0.000116 0 2.23825 0 2650 
2067 1 0.141648 0.00147422 0.011964 0.000423 0 2.23951 0 2650 
1112 1 0.151852 0.000997532 0.012176 4.2e-05 0 2.2374 0 2650 
2040 1 0.0710394 0.00193119 0.0121294 0.000116 -0.83955 4.01824 -1.40681 2650 
197 1 0.001978 0.000488343 0.012413 4.2e-05 0 2.23729 0 2650 
489 1 0.047522 0.000701594 0.012445 0.000423 0 2.23951 0 2650 
1205 1 0.074386 0.000381887 0.012556 0.000116 0 2.23918 0 2650 
2175 1 0.099879 0.000551223 0.012522 0.000116 0 2.23815 0 2650 
1598 1 0.140638 0.000378577 0.012616 0.000116 0 2.23825 0 2650 
2495 1 0.004327 0.000987317 0.013029 0.000423 0 2.23961 0 2650 
895 1 0.045265 0.00110352 0.012269 0.000656 0 2.23968 0 2650 
597 1 0.052746 0.001193 0.012275 0.000423 0 2.23948 0 2650 
738 1 0.077063 0.000957567 0.012617 0.000423 0 2.23963 0 2650 
294 1 0.083181 0.000942174 0.012766 0.000423 0 2.23948 0 2650 
794 1 0.101794 0.000968519 0.012964 0.000656 0 2.23979 0 2650 
723 1 0.135627 0.00106376 0.012992 0.000116 0 2.23815 0 2650 
1396 1 0.149437 0.00146501 0.012358 0.000423 0 2.23965 0 2650 
1535 1 0.115039 0.00421014 0.0127002 0.000423 -0.281499 -3.14964 3.10928 2650 
1719 1 0.032653 0.000809752 0.013588 0.000423 0 2.23963 0 2650 
265 1 0.051603 0.000531462 0.013845 0.000116 0 2.23849 0 2650 
459 1 0.065523 0.000526603 0.013362 0.000116 0 2.23815 0 2650 
2302 1 0.075182 0.000834064 0.013287 0.000423 0 2.23961 0 2650 
1241 1 0.080082 0.0003741 0.01365 0.000116 0 2.23825 0 2650 
2436 1 0.084941 0.000901334 0.013757 0.000116 0 2.23815 0 2650 
1385 1 0.09883 0.000603998 0.013076 0.000116 0 2.23824 0 2650 
1601 1 0.129629 0.000806373 0.013243 0.000116 0 2.23815 0 2650 
1348 1 0.132843 0.000442845 0.013729 0.000116 0 2.23824 0 2650 
1284 1 0.020685 0.00147268 0.013078 0.000423 0 2.23963 0 2650 
2120 1 0.056455 0.00141508 0.013138 0.000423 0 2.23961 0 2650 
954 1 0.0719276 0.00099576 0.0136177 0.000656 0.00469377 2.2299 0.00786524 2650 
1833 1 0.115349 0.00129825 0.013093 0.000423 0 2.23948 0 2650 
1649 1 0.14757 0.00133606 0.013797 0.000423 0 2.23963 0 2650 
2243 1 0.046104 0.00179463 0.013449 0.000656 0 2.23969 0 2650 
27 1 0.030797 0.000617951 0.014592 0.000116 0 2.23914 0 2650 
48 1 0.035058 0.000621476 0.013916 0.000116 0 2.23917 0 2650 
152 1 0.048531 0.000367167 0.014359 0.000116 0 2.23914 0 2650 
1452 1 0.057611 0.000781753 0.014495 0.000116 0 2.23815 0 2650 
1931 1 0.102655 0.000269894 0.014112 4.2e-05 0 2.23579 0 2650 
630 1 0.10425 0.000523422 0.014428 0.000116 0 2.23824 0 2650 
790 1 0.126922 0.000373884 0.01428 0.000116 0 2.23914 0 2650 
2097 1 0.157939 0.000559002 0.014523 4.2e-05 0 2.2374 0 2650 
1801 1 0.010927 0.00106535 0.014115 0.000423 0 2.23948 0 2650 
610 1 0.039545 0.00118309 0.013854 0.000423 0 2.23951 0 2650 
412 1 0.055062 0.00146115 0.014355 0.000423 0 2.23961 0 2650 
1135 1 0.075772 0.000948892 0.014316 0.000423 0 2.23948 0 2650 
1458 1 0.142812 0.000971735 0.014111 0.000116 0 2.23914 0 2650 
1257 1 0.1497 0.00104045 0.014178 0.000116 0 2.23824 0 2650 
1002 1 0.008661 0.000396791 0.015305 0.000116 0 2.23815 0 2650 
1998 1 0.04633 0.000363055 0.01483 4.2e-05 0 2.23729 0 2650 
1308 1 0.051143 0.000480411 0.015138 0.000116 0 2.23918 0 2650 
724 1 0.051952 0.000555255 0.015061 0.000116 0 2.23914 0 2650 
1484 1 0.053459 0.000396791 0.015164 0.000116 0 2.23815 0 2650 
616 1 0.060796 0.000656416 0.014808 0.000116 0 2.23815 0 2650 
1160 1 0.068631 0.000791174 0.014917 0.000423 0 2.23951 0 2650 
2042 1 0.087817 0.000431322 0.015033 0.000116 0 2.23815 0 2650 
1790 1 0.014573 0.00111728 0.015413 0.000116 0 2.23914 0 2650 
1207 1 0.0966039 0.00115073 0.0152818 0.000656 -0.0548809 2.24356 0.0566914 2650 
211 1 0.124407 0.00136805 0.0149 0.000423 0 2.23961 0 2650 
2335 1 0.133151 0.00114633 0.01467 0.000423 0 2.23961 0 2650 
146 1 0.156933 0.0015294 0.015215 0.000656 0 2.23971 0 2650 
711 1 0.0251828 0.000931951 0.0161089 0.000423 -0.046851 2.25189 0.0392278 2650 
934 1 0.0258643 0.000805625 0.0155382 0.000423 0.0468657 2.22742 -0.0392401 2650 
64 1 0.050143 0.000472888 0.015685 0.000116 0 2.23815 0 2650 
2177 1 0.11132 0.000715031 0.015853 0.000423 0 2.23951 0 2650 
418 1 0.149012 0.000786695 0.015862 0.000423 0 2.23951 0 2650 
1673 1 0.014714 0.00114537 0.015963 0.000423 0 2.23961 0 2650 
314 1 0.09027 0.00101228 0.016032 0.000116 0 2.23815 0 2650 
2091 1 0.104905 0.00166542 0.016209 0.000656 0 2.2398 0 2650 
783 1 0.124383 0.00147659 0.01615 0.000656 0 2.23969 0 2650 
57 1 0.057367 0.000720803 0.016604 0.000423 0 2.23961 0 2650 
2246 1 0.079128 0.000299758 0.016383 4.2e-05 0 2.23441 0 2650 
587 1 0.04028 0.00095444 0.016356 4.2e-05 0 2.23441 0 2650 
1602 1 0.042847 0.00103348 0.016354 0.000116 0 2.23917 0 2650 
1440 1 0.051411 0.00162889 0.016331 0.000656 0 2.23969 0 2650 
1809 1 0.084202 0.00115209 0.016295 0.000423 0 2.23961 0 2650 
1979 1 0.148755 0.00129766 0.016686 0.000423 0 2.23961 0 2650 
396 1 0.0947583 0.00511809 0.0165645 4.2e-05 2.60542 -4.90709 13.1708 2650 
505 1 0.079356 0.000759079 0.017099 0.000116 0 2.23825 0 2650 
1739 1 0.08215 0.000330788 0.01734 4.2e-05 0 2.2374 0 2650 
2474 1 0.083353 0.000703123 0.017263 0.000116 0 2.23825 0 2650 
290 1 0.090462 0.000538866 0.017451 4.2e-05 0 2.2374 0 2650 
753 1 0.106579 0.000600855 0.017074 0.000116 0 2.23849 0 2650 
269 1 0.115081 0.000479977 0.017289 0.000116 0 2.23849 0 2650 
1589 1 0.13054 0.000569975 0.01743 0.000116 0 2.23917 0 2650 
582 1 0.145975 0.00061697 0.0171732 0.000423 -1.37323 0.61928 -0.0583622 2650 
88 1 0.147782 0.000497705 0.01725 0.000423 1.60152 0.903831 0.0680646 2650 
1439 1 0.160999 0.000390627 0.017183 4.2e-05 0 2.23579 0 2650 
413 1 0.016706 0.00117098 0.0171156 0.000656 0.33165 1.88219 -0.708339 2650 
198 1 0.073518 0.00132806 0.017315 0.000423 0 2.23961 0 2650 
1537 1 0.088848 0.00112106 0.017169 0.000423 0 2.23963 0 2650 
1255 1 0.103727 0.00113527 0.0170698 0.000423 2.58578 1.74351 -0.774355 2650 
897 1 0.133624 0.0010725 0.017326 0.000116 0 2.23914 0 2650 
2192 1 0.0305654 0.00347028 0.0170083 0.000656 -6.87493 5.02947 -1.31107 2650 
922 1 0.101319 0.00344576 0.0172455 0.000423 -0.158534 4.66164 -0.876317 2650 
1211 1 0.099148 0.000791126 0.018421 0.000116 0 2.23849 0 2650 
1481 1 0.103713 0.000511782 0.0178956 0.000116 0.99118 2.16272 0.844179 2650 
359 1 0.125342 0.000788176 0.018465 0.000116 0 2.23825 0 2650 
1140 1 0.138488 0.00089244 0.0179563 0.000423 0.0665955 2.2499 0.235381 2650 
943 1 0.039469 0.00117886 0.018546 0.000116 0 2.23815 0 2650 
2486 1 0.042163 0.00117448 0.018514 0.000423 0 2.23961 0 2650 
1887 1 0.063275 0.00133606 0.018064 0.000423 0 2.23963 0 2650 
1304 1 0.082867 0.00117637 0.018006 0.000423 0 2.23951 0 2650 
600 1 0.01565 0.00063388 0.0193711 0.000423 -1.33476 0.616903 2.85079 2650 
72 1 0.01798 0.000727101 0.019191 0.000116 0 2.23824 0 2650 
1058 1 0.033484 0.000726758 0.018874 0.000116 0 2.23815 0 2650 
770 1 0.087399 0.000585754 0.018895 0.000116 0 2.23815 0 2650 
976 1 0.091588 0.000714314 0.019221 0.000116 0 2.23825 0 2650 
217 1 0.11624 0.000601323 0.01924 0.000116 0 2.23917 0 2650 
1129 1 0.030015 0.00104585 0.019214 0.000116 0 2.23815 0 2650 
1271 1 0.034605 0.00136225 0.019326 0.000423 0 2.23951 0 2650 
2290 1 0.058947 0.00168457 0.018645 0.000656 0 2.23969 0 2650 
1782 1 0.109585 0.00118216 0.018854 0.000423 0 2.23961 0 2650 
103 1 0.134585 0.00117615 0.01865 0.000116 0 2.23849 0 2650 
1989 1 0.0446028 0.00443884 0.0190602 0.000656 10.1656 1.11628 1.1651 2650 
1380 1 0.012312 0.000930977 0.019777 0.000423 0 2.23948 0 2650 
327 1 0.019879 0.00081871 0.020058 0.000423 0 2.23963 0 2650 
1941 1 0.102976 0.000499746 0.019466 0.000116 0 2.23815 0 2650 
467 1 0.008277 0.00130919 0.020141 0.000423 0 2.23963 0 2650 
491 1 0.037832 0.00096276 0.020112 0.000116 0 2.23825 0 2650 
863 1 0.056957 0.00147173 0.019571 0.000423 0 2.23965 0 2650 
2453 1 0.070332 0.00117903 0.019926 0.000116 0 2.23917 0 2650 
255 1 0.111674 0.0010743 0.019727 0.000423 0 2.23948 0 2650 
635 1 0.124633 0.00118216 0.019499 0.000423 0 2.23961 0 2650 
1191 1 0.147173 0.0011009 0.019927 0.000423 0 2.23963 0 2650 
2139 1 0.0974397 0.00423377 0.0200451 0.000423 -3.3797 -1.7183 1.96296 2650 
1493 1 0.014484 0.000712791 0.020771 0.000423 0 2.23951 0 2650 
2354 1 0.014959 0.000371862 0.020276 0.000116 0 2.23825 0 2650 
1217 1 0.018898 0.000703833 0.020259 0.000423 0 2.23951 0 2650 
809 1 0.022569 0.000914807 0.020657 0.000116 0 2.23917 0 2650 
37 1 0.034376 0.000803202 0.020581 0.000116 0 2.23824 0 2650 
2423 1 0.0359168 0.000391013 0.0207541 0.000423 -0.928428 1.21784 1.94513 2650 
2372 1 0.083067 0.000834197 0.020627 0.000116 0 2.23917 0 2650 
2245 1 0.084222 0.000481363 0.020706 0.000116 0 2.23914 0 2650 
2433 1 0.120631 0.000550776 0.020189 0.000116 0 2.23914 0 2650 
888 1 0.136044 0.000868618 0.020613 0.000423 0 2.23961 0 2650 
1861 1 0.14233 0.000730687 0.020248 0.000116 0 2.23849 0 2650 
501 1 0.149638 0.00082261 0.020687 4.2e-05 0 2.23441 0 2650 
1067 1 0.0166368 0.00168603 0.0207689 0.000423 -0.390084 2.45924 -0.821365 2650 
1065 1 0.027926 0.0014154 0.020581 0.000423 0 2.23961 0 2650 
2085 1 0.051831 0.00115146 0.02068 0.000423 0 2.23965 0 2650 
1643 1 0.072452 0.00142246 0.020494 0.000423 0 2.23965 0 2650 
1849 1 0.097369 0.00123624 0.02094 0.000423 0 2.23961 0 2650 
231 1 0.151138 0.000953088 0.020606 0.000423 0 2.23963 0 2650 
2451 1 0.048261 0.000802179 0.021077 4.2e-05 0 2.23441 0 2650 
746 1 0.081277 0.00072621 0.020981 0.000116 0 2.23849 0 2650 
429 1 0.08347 0.000814231 0.021246 0.000423 0 2.23963 0 2650 
1292 1 0.094998 0.000732147 0.021521 0.000116 0 2.23914 0 2650 
2172 1 0.121251 0.000453115 0.021576 0.000116 0 2.23849 0 2650 
1669 1 0.13613 0.000766539 0.02153 0.000423 0 2.23951 0 2650 
2349 1 0.144223 0.000937085 0.021596 0.000423 0 2.23961 0 2650 
111 1 0.145579 0.000345668 0.021193 0.000116 0 2.23849 0 2650 
15 1 0.048347 0.00113585 0.021217 0.000116 0 2.23849 0 2650 
2094 1 0.153133 0.00149637 0.021671 0.000423 0 2.23965 0 2650 
1388 1 0.044435 0.000131128 0.0221352 0.000116 5.12801 0.0579037 -1.20064 2650 
2123 1 0.020135 0.00091021 0.022133 0.000423 0 2.23961 0 2650 
751 1 0.020676 0.000737403 0.022507 0.000116 0 2.23849 0 2650 
2210 1 0.034314 0.000735673 0.022213 0.000116 0 2.23917 0 2650 
414 1 0.066167 0.000368983 0.021955 0.000116 0 2.23824 0 2650 
2096 1 0.096139 0.000520967 0.022521 4.2e-05 0 2.2374 0 2650 
2416 1 0.041036 0.00100427 0.021765 0.000423 0 2.23961 0 2650 
674 1 0.0429209 0.00105825 0.0219205 0.000656 -0.0196894 2.22197 -0.0287972 2650 
1228 1 0.0515082 0.00123383 0.0225802 0.000116 -10.5319 4.07973 16.2441 2650 
1243 1 0.061472 0.00107925 0.021782 4.2e-05 0 2.23579 0 2650 
493 1 0.126871 0.0011047 0.022504 0.000423 0 2.23951 0 2650 
1994 1 0.142649 0.00122919 0.022027 0.000423 0 2.23961 0 2650 
1560 1 0.145212 0.00131944 0.022301 0.000423 0 2.23965 0 2650 
2270 1 0.000832 0.000875986 0.023295 0.000423 0 2.23965 0 2650 
249 1 0.022254 0.00035686 0.0233 0.000116 0 2.23849 0 2650 
993 1 0.028135 0.000625082 0.023309 0.000116 0 2.23815 0 2650 
1504 1 0.095192 0.000868753 0.022785 0.000116 0 2.23825 0 2650 
1642 1 0.137147 0.000869267 0.023316 0.000423 0 2.23965 0 2650 
923 1 0.161252 0.000840373 0.023014 0.000116 0 2.23849 0 2650 
38 1 0.0176137 0.00124593 0.0228259 0.000423 0.390905 2.01984 0.823094 2650 
2223 1 0.0635614 0.000982108 0.0229466 0.000423 -0.895355 -4.61929 -1.78423 2650 
1986 1 0.066282 0.000996573 0.022706 4.2e-05 0 2.23441 0 2650 
2314 1 0.076991 0.00117838 0.022691 0.000116 0 2.23849 0 2650 
1246 1 0.080504 0.00111048 0.023289 0.000116 0 2.23825 0 2650 
1895 1 0.107656 0.00106333 0.023279 4.2e-05 0 2.23729 0 2650 
1118 1 0.119151 0.000950059 0.022741 0.000116 0 2.23849 0 2650 
646 1 0.140105 0.00105674 0.023238 0.000423 0 2.23961 0 2650 
82 1 0.154961 0.000994969 0.023145 0.000423 0 2.23951 0 2650 
2115 1 0.016765 0.000796487 0.02409 0.000116 0 2.23824 0 2650 
518 1 0.03397 0.000893365 0.023721 0.000116 0 2.23914 0 2650 
1263 1 0.073086 0.000714085 0.023941 0.000423 0 2.23961 0 2650 
446 1 0.101555 0.000430547 0.023987 4.2e-05 0 2.2376 0 2650 
400 1 0.131378 0.000388814 0.023773 4.2e-05 0 2.23441 0 2650 
1812 1 0.145705 0.000935171 0.02396 0.000423 0 2.23963 0 2650 
1937 1 0.043278 0.000948687 0.023552 0.000116 0 2.23824 0 2650 
1456 1 0.076694 0.00115152 0.023974 0.000116 0 2.23849 0 2650 
879 1 0.116971 0.00106701 0.023556 4.2e-05 0 2.23418 0 2650 
2136 1 0.002327 0.000359098 0.024891 0.000116 0 2.23849 0 2650 
1583 1 0.0231975 0.000767811 0.0243052 0.000423 -0.153549 2.05382 -0.0767161 2650 
339 1 0.035201 0.000929737 0.024381 0.000423 0 2.23965 0 2650 
2381 1 0.054499 0.000453115 0.024569 0.000116 0 2.23849 0 2650 
958 1 0.054851 0.000646525 0.024231 0.000116 0 2.23824 0 2650 
828 1 0.159183 0.000656016 0.024535 0.000116 0 2.23914 0 2650 
1153 1 0.0228607 0.00179732 0.0241194 0.000116 -10.2965 11.8865 -5.41198 2650 
617 1 0.041439 0.00133761 0.024608 0.000423 0 2.23951 0 2650 
47 1 0.085962 0.00151619 0.024809 0.000423 0 2.23961 0 2650 
544 1 0.096732 0.00161769 0.024122 0.000656 0 2.23969 0 2650 
1056 1 0.129981 0.00107155 0.024264 0.000656 0 2.23979 0 2650 
2269 1 0.138223 0.0011956 0.024436 0.000423 0 2.23961 0 2650 
1225 1 0.148005 0.00177991 0.024592 0.000656 0 2.23968 0 2650 
2375 1 0.039706 0.000561018 0.024993 0.000116 0 2.23917 0 2650 
1374 1 0.0633271 0.000927253 0.0253205 0.000423 -0.200178 2.24298 0.113202 2650 
2356 1 0.082785 0.000466173 0.025415 0.000116 0 2.23815 0 2650 
1745 1 0.10678 0.00085612 0.025316 0.000423 0 2.23951 0 2650 
120 1 0.124076 0.000800132 0.025565 0.000423 0 2.23951 0 2650 
2499 1 0.137558 0.000811117 0.025442 4.2e-05 0 2.23441 0 2650 
2056 1 0.156354 0.000188445 0.0249153 0.000116 0.234862 1.0986 -3.43682 2650 
331 1 0.008847 0.00114789 0.025112 0.000116 0 2.23824 0 2650 
1935 1 0.054785 0.00116672 0.025329 0.000116 0 2.23815 0 2650 
719 1 0.0647702 0.00140299 0.025139 0.000656 0.244649 2.443 0.295326 2650 
437 1 0.068747 0.00132465 0.024959 0.000656 0 2.23979 0 2650 
1104 1 0.096386 0.00128295 0.025692 0.000423 0 2.23961 0 2650 
2009 1 0.136828 0.00100439 0.0252546 0.000656 0.00332919 2.2293 -0.0206489 2650 
2409 1 0.045373 0.000409912 0.026375 0.000116 0 2.23825 0 2650 
2469 1 0.071532 0.000344775 0.025811 0.000116 0 2.23914 0 2650 
2283 1 0.075251 0.000902613 0.026091 0.000116 0 2.23815 0 2650 
1319 1 0.091555 0.000724323 0.0258 0.000423 0 2.23961 0 2650 
130 1 0.115638 0.000664431 0.026445 0.000116 0 2.23824 0 2650 
2126 1 0.133494 0.000649979 0.025818 4.2e-05 0 2.23579 0 2650 
1942 1 0.145658 0.000620914 0.025799 4.2e-05 0 2.23579 0 2650 
86 1 0.158832 0.000772451 0.026032 0.000116 0 2.23914 0 2650 
930 1 0.077129 0.000980598 0.025773 0.000423 0 2.23961 0 2650 
1025 1 0.086945 0.0014494 0.025794 0.000656 0 2.23969 0 2650 
2405 1 0.119159 0.00148672 0.026089 0.000423 0 4.13908 -3.85896 2650 
631 1 0.153063 0.00111685 0.025957 0.000423 0 2.23948 0 2650 
23 1 0.092496 0.00211528 0.0261609 0.000423 0.661499 4.90042 -3.16547 2650 
2149 1 0.020829 0.000711995 0.02721 0.000116 0 2.23914 0 2650 
2030 1 0.02889 0.000480561 0.02685 0.000116 0 2.23815 0 2650 
817 1 0.075874 0.000382413 0.026873 0.000116 0 2.23824 0 2650 
441 1 0.136578 0.000303922 0.0268047 0.000116 -0.601663 1.16007 3.73175 2650 
1490 1 0.010825 0.00116938 0.026744 0.000423 0 2.23965 0 2650 
1340 1 0.0453365 0.000966518 0.0270011 0.000656 -4.45895 1.81012 -3.1895 2650 
70 1 0.049569 0.00140902 0.027006 0.000423 0 2.23965 0 2650 
1638 1 0.051593 0.00136429 0.026922 0.000656 0 2.23969 0 2650 
1777 1 0.057211 0.00109446 0.026905 0.000423 0 2.23948 0 2650 
1117 1 0.089455 0.000991796 0.026925 0.000423 0 2.23961 0 2650 
721 1 0.101502 0.00126306 0.0266004 0.000656 -6.18083 2.73405 -3.55322 2650 
2262 1 0.110514 0.00113545 0.026869 0.000423 0 2.23961 0 2650 
977 1 0.13334 0.00107925 0.026793 4.2e-05 0 2.23441 0 2650 
428 1 0.15624 0.00117365 0.0265802 0.000423 -0.00616357 2.16611 0.0901936 2650 
1722 1 0.015485 0.00078416 0.02792 0.000423 0 2.23965 0 2650 
458 1 0.023778 0.000451798 0.02804 0.000116 0 2.23824 0 2650 
266 1 0.0786327 0.00088938 0.027512 0.000423 -8.54341 1.54341 0 2650 
571 1 0.123616 0.000848782 0.027453 0.000423 0 2.23961 0 2650 
1195 1 0.159417 0.000550053 0.027491 4.2e-05 0 2.2374 0 2650 
1929 1 0.092846 0.00115525 0.027856 0.000116 0 2.23825 0 2650 
1086 1 0.110601 0.00144934 0.027997 0.000423 0 2.23965 0 2650 
1400 1 0.131684 0.00116517 0.027456 0.000423 0 2.23951 0 2650 
2107 1 0.138375 0.00102703 0.027461 0.000116 0 2.23824 0 2650 
1076 1 0.006655 0.000318671 0.028645 4.2e-05 0 2.23763 0 2650 
1662 1 0.009982 0.000460418 0.028422 0.000116 0 2.23815 0 2650 
1740 1 0.044597 0.000843142 0.028771 0.000116 0 2.23815 0 2650 
2059 1 0.066155 0.000288586 0.028516 4.2e-05 0 2.23441 0 2650 
261 1 0.068779 0.000775497 0.028837 0.000423 0 2.23951 0 2650 
318 1 0.0777712 0.000730228 0.0284336 0.000423 -0.733189 1.98562 -0.904818 2650 
1320 1 0.088834 0.000554757 0.028395 0.000116 0 2.23824 0 2650 
882 1 0.08832 0.000665369 0.028089 0.000116 0 2.23815 0 2650 
1562 1 0.106581 0.000562174 0.028147 4.2e-05 0 2.23729 0 2650 
2058 1 0.131865 0.000466716 0.0287526 0.000423 0.116053 -0.993838 -2.27377 2650 
567 1 0.012167 0.00100912 0.028577 0.000116 0 2.23824 0 2650 
2359 1 0.065394 0.00103506 0.028807 0.000656 0 2.23969 0 2650 
271 1 0.023654 0.000670248 0.02955 0.000116 0 2.23849 0 2650 
944 1 0.0562106 0.000466473 0.0295419 0.000116 4.01799 1.62777 -3.43374 2650 
682 1 0.088745 0.000367385 0.029072 0.000116 0 2.23825 0 2650 
2494 1 0.112264 0.000347551 0.029261 0.000116 0 2.23815 0 2650 
1470 1 0.12141 0.000638242 0.029441 4.2e-05 0 2.23729 0 2650 
1622 1 0.148534 0.000852094 0.028927 0.000116 0 2.23815 0 2650 
1930 1 0.155149 0.000765794 0.029092 0.000116 0 2.23825 0 2650 
66 1 0.028179 0.00101356 0.028997 0.000423 0 2.23963 0 2650 
1763 1 0.047656 0.00142117 0.029583 0.000423 0 2.23963 0 2650 
956 1 0.077236 0.00105003 0.029149 0.000423 0 2.23961 0 2650 
431 1 0.152539 0.00104595 0.029046 0.000656 0 2.23979 0 2650 
1915 1 0.030283 0.00178343 0.029516 0.000656 0 2.23969 0 2650 
2480 1 0.014403 0.000699054 0.029889 0.000423 0 2.23965 0 2650 
71 1 0.106422 0.000786073 0.030376 0.000423 0 2.23961 0 2650 
620 1 0.130104 0.000699354 0.029694 0.000423 0 2.23951 0 2650 
709 1 0.0731 0.00103264 0.030266 4.2e-05 0 2.23441 0 2650 
1177 1 0.0787893 0.00124525 0.0296901 0.000423 0.940171 1.44594 1.16025 2650 
1489 1 0.085601 0.00148899 0.029983 0.000423 0 2.23961 0 2650 