ITEM: TIMESTEP
10657626
ITEM: NUMBER OF ATOMS
4287
ITEM: BOX BOUNDS ff ff ff
-0.15 0.15
-0.15 0.06
-0.15 0.15
ITEM: ATOMS id type x y z radius vx vy vz density 
538 1 -0.000143718 -0.0597408 -0.068884 0.000116 0.677905 0.0880772 -0.00141436 2650 
940 1 -0.00130825 -0.0592012 -0.0688717 0.000116 5.84548 0.265465 -0.111037 2650 
3054 1 -0.00457946 -0.0509825 -0.0687317 0.000116 1.13898 -1.20643 -0.0758876 2650 
51 1 -0.00781554 -0.0518665 -0.0681312 0.000423 0.848949 -0.163504 -0.0973855 2650 
1323 1 -0.00469228 -0.0498782 -0.0681849 0.000656 0.5112 -0.394125 -0.0351792 2650 
1417 1 -0.0115685 -0.0457491 -0.0679058 0.000116 -0.522587 0.145789 0.0890284 2650 
574 1 -0.0124055 -0.0622328 -0.0674416 0.000423 -1.58778 -0.572825 0.298905 2650 
1699 1 -0.0119437 -0.0610065 -0.06753 0.000423 -1.87426 -0.433746 0.331492 2650 
615 1 -0.0132847 -0.0603932 -0.0675841 0.000116 0.20574 0.641276 -0.00697768 2650 
1856 1 -0.013066 -0.0605836 -0.0676334 0.000116 0.255541 -1.08033 -0.0936058 2650 
3096 1 -0.0104824 -0.0457588 -0.0677722 0.000423 0.252904 -0.821408 -0.0393344 2650 
2012 1 -0.0195736 -0.0604642 -0.0657255 0.000423 3.89692 -0.0527303 -1.16052 2650 
578 1 -0.0192891 -0.0492575 -0.0658094 0.000423 1.6869 -0.0475913 -0.494441 2650 
816 1 -0.0218478 -0.062377 -0.0650052 0.000423 7.67417 9.53067e-08 -2.57924 2650 
2103 1 -0.020401 -0.0573254 -0.0654734 0.000423 4.67078 0.926672 -1.4554 2650 
3357 1 -0.0242495 -0.0598678 -0.0644747 0.000116 2.30478 0.873601 -0.866849 2650 
2274 1 -0.024382 -0.0463936 -0.0644247 0.000116 3.98291 -0.0130295 -1.50736 2650 
3966 1 -0.0277756 -0.0590205 -0.0627014 0.000423 -0.758011 -1.24735 0.335786 2650 
4305 1 -0.0309799 -0.0496999 -0.0611816 0.000423 -0.296683 0.159407 0.150228 2650 
902 1 -0.0400482 -0.0469335 -0.0556695 0.000423 0.102164 0.339569 -0.073496 2650 
198 1 -0.0415403 -0.0625891 -0.0546544 0.000116 11.5049 0.12045 -7.67473 2650 
3265 1 -0.0413324 -0.0605375 -0.0551058 0.000116 1.90209 0.667526 -1.42667 2650 
872 1 -0.0414712 -0.0574929 -0.055094 4.2e-05 3.4582 0.759818 -2.60311 2650 
3399 1 -0.0375994 -0.0481027 -0.0540038 4.2e-05 1.14604 -0.949863 -9.75158 2650 
1380 1 -0.0424169 -0.0471713 -0.0542755 0.000116 2.71109 -0.679027 -2.11874 2650 
3372 1 -0.0443315 -0.0541141 -0.0527233 0.000116 1.70744 -0.138844 -1.43567 2650 
2738 1 -0.0149995 -0.0490727 -0.0509771 4.2e-05 5.93007 -2.04298 -0.405253 2650 
2083 1 -0.048368 -0.0559074 -0.0491503 4.2e-05 5.85326 0.839865 -5.7601 2650 
1958 1 -0.050198 -0.060576 -0.0471718 0.000116 -0.771248 -0.0941398 0.820725 2650 
1768 1 -0.0509875 -0.0576128 -0.0455134 0.000656 -0.231567 -0.340319 0.259419 2650 
1805 1 -0.0517332 -0.0530424 -0.045018 0.000423 -0.0361644 0.612939 0.041559 2650 
3260 1 -0.0540087 -0.0585721 -0.0427561 0.000116 -0.414589 -0.0961702 0.5237 2650 
3013 1 -0.0559854 -0.0558943 -0.0396053 0.000423 -0.286133 0.0827836 0.404474 2650 
1943 1 -0.0566057 -0.0620582 -0.0392532 0.000116 1.96174 1.13677 -2.82896 2650 
1046 1 -0.0570911 -0.057624 -0.0385439 0.000116 -0.540045 -1.13275 0.799912 2650 
1961 1 -0.0597906 -0.0588443 -0.0342068 0.000116 0.906692 -0.739551 -1.58482 2650 
3143 1 -0.060726 -0.0477318 -0.0325174 0.000116 1.03114 -0.819455 -1.92565 2650 
1419 1 -0.0623625 -0.0572818 -0.0292564 0.000116 -0.691627 -0.357865 1.47426 2650 
1107 1 -0.062194 -0.0560516 -0.0283391 0.000656 -0.303519 -0.615769 0.666114 2650 
3381 1 -0.0631372 -0.0485001 -0.0275451 0.000116 4.05043 -0.577786 -9.28416 2650 
1712 1 -0.0639384 -0.0467526 -0.0256302 0.000116 0.0093178 0.154821 -0.0232446 2650 
1164 1 -0.0664108 -0.0617424 -0.0182318 0.000116 4.18149 0.482775 -13.3451 2650 
3375 1 -0.0667469 -0.0498404 -0.0170257 0.000116 0.559125 1.41786 -2.19197 2650 
3547 1 -0.0671808 -0.0598699 -0.0137728 0.000423 0.0549033 -0.65325 -0.267807 2650 
2848 1 -0.0677543 -0.0484621 -0.0128285 4.2e-05 0.111934 1.8257 -0.591187 2650 
2042 1 -0.0682818 -0.0559343 -0.00908915 0.000116 0.22685 0.278466 -1.7042 2650 
3549 1 -0.0682189 -0.0540602 -0.00700936 0.000423 0.0716553 0.243717 -0.697388 2650 
577 1 -0.0685533 -0.0517433 0.00184099 0.000423 0.0305952 -0.39775 1.13928 2650 
2123 1 -0.0683474 -0.0608057 0.00561995 0.000423 0.0123162 -0.470675 0.149784 2650 
2186 1 -0.0683977 -0.0606082 0.00817202 0.000116 0.141258 -2.10452 1.18229 2650 
4048 1 -0.0684723 -0.047983 0.00817036 4.2e-05 -0.315505 0.299805 -2.64411 2650 
1407 1 -0.0672758 -0.0571786 0.0147984 0.000116 0.130455 -1.34511 0.593069 2650 
420 1 -0.0671285 -0.0575731 0.0154528 0.000116 -0.19185 0.211129 -0.833413 2650 
2823 1 -0.0628962 -0.0619874 0.0271243 0.000116 -3.89882 -0.00675132 -6.91114 2650 
854 1 -0.0629428 -0.0589854 0.0279865 0.000116 -5.2878 0.919796 -11.8925 2650 
947 1 -0.0629988 -0.0517711 0.0277541 0.000116 -1.28405 -3.71891 -0.916069 2650 
2234 1 -0.0622786 -0.0480298 0.0287111 0.000423 0.0773941 -0.199561 0.167879 2650 
3505 1 -0.048217 -0.0612897 0.0294444 4.2e-05 -7.57654 0.466022 -7.06907 2650 
786 1 -0.0620148 -0.053854 0.0292766 0.000423 -1.21993 -0.538932 -2.58411 2650 
3688 1 -0.0604375 -0.0626629 0.0304364 0.000116 -0.864668 0.186688 -0.356643 2650 
2271 1 -0.0609269 -0.0601445 0.0321395 0.000116 -6.27279 0.612423 -11.8913 2650 
4331 1 -0.058361 -0.0560485 0.0365926 0.000116 0.570286 -3.14512 0.909539 2650 
1231 1 -0.0567649 -0.062307 0.038204 0.000423 -1.83339 -0.041728 -4.36835 2650 
4098 1 -0.0561187 -0.0514309 0.0394162 0.000423 0.492214 -0.0391042 0.700789 2650 
2165 1 -0.0560563 -0.0489519 0.0400339 0.000116 -3.01994 -0.32584 -4.22858 2650 
2314 1 -0.0550389 -0.0595853 0.0405208 0.000656 -1.94738 -0.169795 -2.6451 2650 
1185 1 -0.054077 -0.0556173 0.0426697 0.000116 -2.31441 0.768608 -2.93315 2650 
1227 1 -0.05328 -0.0538219 0.0431762 0.000423 -0.504758 0.289187 -0.622877 2650 
201 1 -0.0529585 -0.0547468 0.0440502 0.000116 3.07113 -1.38625 3.6922 2650 
3153 1 -0.0523468 -0.0525425 0.0447754 0.000116 -1.28339 1.09839 -1.5004 2650 
2052 1 -0.0470215 -0.0576141 0.0503388 0.000116 -1.76989 0.820556 -1.65326 2650 
3090 1 -0.0426775 -0.0541453 0.0536803 0.000423 0.68401 0.0972988 0.543809 2650 
319 1 -0.0397698 -0.0624544 0.0535702 0.000116 -4.94872 0.128623 -9.83742 2650 
917 1 -0.0406842 -0.0598111 0.0552064 0.000423 -0.335398 0.0184855 -0.247171 2650 
2198 1 -0.0414755 -0.0541478 0.0550908 4.2e-05 -7.52755 -1.61824 -5.66717 2650 
2037 1 -0.041176 -0.0604441 0.0552228 0.000116 -7.17727 -1.34846 -5.35162 2650 
400 1 -0.0409319 -0.0561327 0.055404 0.000116 -2.7848 -0.713883 -2.05738 2650 
3747 1 -0.0387931 -0.049146 0.0565512 0.000423 0.73121 -1.12891 0.501597 2650 
4023 1 -0.0394413 -0.0482447 0.0564748 0.000116 -1.32272 -0.602853 -0.923774 2650 
739 1 -0.0344824 -0.0495337 0.0596321 0.000116 2.37472 0.398834 1.37319 2650 
4306 1 -0.03242 -0.062377 0.0604314 0.000423 -8.34029 1.69302e-07 -4.47436 2650 
3817 1 -0.0299708 -0.0554905 0.0620224 0.000116 -1.39823 0.995218 -0.675658 2650 
4229 1 -0.0230887 -0.0590787 0.0648994 0.000116 -3.05757 -0.293847 -1.08776 2650 
2247 1 -0.0156644 -0.0600918 0.0667651 0.000423 -2.80237 0.107532 -0.657491 2650 
1955 1 -0.018556 -0.0561749 0.0663377 0.000116 -1.63914 0.00928256 -0.4585 2650 
935 1 -0.0153762 -0.0462488 0.0668323 0.000423 -6.06089 0.64655 -1.39444 2650 
1865 1 -0.0136116 -0.059797 0.0676013 4.2e-05 0.573024 -3.06162 0.115379 2650 
1208 1 -0.0101965 -0.0553415 0.0682 4.2e-05 -3.0247 0.0714809 -0.452221 2650 
443 1 -0.00410611 -0.0517675 0.0682228 0.000656 2.66058 -0.130826 0.160131 2650 
3140 1 -0.00541499 -0.0508671 0.068671 0.000116 -2.77152 0.528156 -0.218546 2650 
3933 1 -0.0111266 -0.0475885 0.0679796 0.000116 -1.67246 0.554142 -0.273741 2650 
3577 1 -0.00901502 -0.0461172 0.068266 0.000116 -8.32493 -0.776466 0.565751 2650 
3393 1 -0.00104238 -0.011884 -0.0689501 4.2e-05 -6.13575 -1.5607 0.0927601 2650 
322 1 -0.0043595 -0.00634388 -0.0688201 4.2e-05 0.687735 -0.0088287 -0.0435655 2650 
1598 1 -0.00970586 -0.0437057 -0.068116 0.000116 3.77781 4.61133 -0.601341 2650 
4110 1 -0.00573227 -0.0359483 -0.0683381 0.000423 -1.26599 -0.321785 0.106193 2650 
2790 1 -0.00931603 -0.0327667 -0.0679423 0.000423 -1.43745 -0.0509831 0.197098 2650 
3040 1 -0.00617256 -0.0282792 -0.068607 0.000116 5.47807 5.06282 -0.492861 2650 
1453 1 -0.000721566 -0.0179992 -0.0685742 0.000423 -1.28186 0.153541 0.0134882 2650 
2310 1 -0.0104492 -0.0154365 -0.0681617 4.2e-05 -1.98773 -2.04212 0.304719 2650 
2248 1 -0.00803451 -0.0118255 -0.0681058 0.000423 -0.506308 -0.253648 0.0597297 2650 
2873 1 -0.00121901 -0.00493464 -0.0685672 0.000423 -0.252553 -0.34032 0.00448998 2650 
4297 1 -0.00958707 -0.00230623 -0.0679046 0.000423 -2.31621 -0.0654071 0.327013 2650 
2367 1 -0.00583754 -0.00112887 -0.0686363 0.000116 -0.843436 -0.248887 0.0717372 2650 
1886 1 -0.00545371 -0.00086946 -0.0683608 0.000423 -0.967597 -0.0709587 0.0771928 2650 
1341 1 -0.0110822 -0.0351312 -0.0676767 0.000423 -1.47301 -0.196258 0.241209 2650 
2139 1 -0.0121431 -0.00676923 -0.0674944 0.000423 -1.02327 0.361455 0.184099 2650 
13 1 -0.0112123 -0.00707263 -0.0676552 0.000423 -1.00232 0.260978 0.166112 2650 
2208 1 -0.00846194 -0.00270823 -0.0678204 0.000656 -2.30929 -0.127681 0.288129 2650 
3743 1 -0.0163138 -0.0236029 -0.0666094 0.000423 -0.158661 0.217507 0.0388589 2650 
4373 1 -0.0165296 -0.0152275 -0.0669476 4.2e-05 6.42947 3.22908 -1.58746 2650 
827 1 -0.0156441 -0.0126588 -0.0670842 0.000116 -0.768596 -0.873206 0.179237 2650 
1462 1 -0.0159704 -0.00971174 -0.0666925 0.000423 -1.22871 0.173761 0.294231 2650 
822 1 -0.0170119 -0.00113085 -0.0664345 0.000423 -1.64154 0.0633292 0.42035 2650 
3741 1 -0.0184511 -0.0367302 -0.0660493 0.000423 -0.761181 -0.140521 0.212638 2650 
1132 1 -0.0184257 -0.00716682 -0.0660564 0.000423 -1.57351 0.145257 0.438914 2650 
4213 1 -0.0187705 -0.00180919 -0.0659592 0.000423 -1.37338 0.380893 0.390833 2650 
440 1 -0.00900819 -0.00440643 -0.0650992 4.2e-05 -2.98957 -0.0909394 0.447048 2650 
1616 1 -0.0235649 -0.0334235 -0.064728 0.000116 -0.529801 -0.554782 0.192879 2650 
2349 1 -0.023314 -0.0183187 -0.0644934 0.000423 0.534734 0.282002 -0.193303 2650 
2875 1 -0.0245996 -0.00047741 -0.0640142 0.000423 -1.85691 0.177263 0.713579 2650 
2091 1 -0.0242314 -0.0316275 -0.0639064 0.000656 -0.569374 -0.255698 0.21589 2650 
2711 1 -0.0260328 -0.0150806 -0.0637755 0.000116 1.4009 -0.195013 -0.571837 2650 
1224 1 -0.0253978 -0.00256628 -0.0637017 0.000423 -1.92064 0.12164 0.765755 2650 
4372 1 -0.0254112 -0.00310655 -0.0633635 4.2e-05 3.46471 -0.594154 -3.42043 2650 
4150 1 -0.0260489 -0.00128098 -0.0637689 0.000116 -1.9612 0.322859 0.80113 2650 
2728 1 -0.0288063 -0.0395435 -0.0625717 0.000116 0.626222 -0.795779 -0.288295 2650 
3636 1 -0.0273666 -0.0271742 -0.062881 0.000423 -1.37465 0.277241 0.598265 2650 
3582 1 -0.0287526 -0.0257047 -0.0625964 0.000116 -1.43776 0.516539 0.660412 2650 
1047 1 -0.0289304 -0.00218528 -0.0625144 0.000116 -1.42766 -0.168812 0.660692 2650 
3904 1 -0.0277297 -0.00179743 -0.0630562 0.000116 -1.73033 0.00748239 0.760934 2650 
343 1 -0.0280063 -0.000711436 -0.0625987 0.000423 -1.78556 -0.0213164 0.798851 2650 
3887 1 -0.0296854 -0.0403813 -0.0618201 0.000423 0.330796 -0.427588 -0.158845 2650 
1278 1 -0.0308572 -0.0371135 -0.061586 0.000116 -0.118652 2.04226 -0.229298 2650 
2634 1 -0.0290634 -0.0189777 -0.061883 4.2e-05 1.71999 2.18434 0.757493 2650 
3748 1 -0.0302611 -0.0339276 -0.0615404 0.000423 -1.05191 -0.282842 0.517254 2650 
1945 1 -0.0312252 -0.017986 -0.0614004 0.000116 -1.63816 0.254341 0.833086 2650 
2846 1 -0.0314852 -0.00707108 -0.0613506 4.2e-05 -2.10299 -0.627636 1.07926 2650 
2143 1 -0.032536 -0.0365597 -0.0603685 0.000423 -1.19689 -0.269273 0.645074 2650 
2018 1 -0.0324974 -0.0337697 -0.0603893 0.000423 -1.26385 -0.163106 0.680114 2650 
3350 1 -0.0296716 -0.000285011 -0.0599297 0.000116 5.34311 -0.0225017 0.226047 2650 
1239 1 -0.0347373 -0.0348084 -0.0591293 0.000423 -0.618405 -0.269015 0.363301 2650 
1082 1 -0.0362449 -0.0312924 -0.0585775 0.000116 -0.539204 -0.842902 0.333633 2650 
502 1 -0.0361103 -0.0157369 -0.0586606 0.000116 -0.911528 -0.228635 0.561118 2650 
3196 1 -0.0356363 -0.00411167 -0.0585918 0.000423 -1.8003 -0.171826 1.09496 2650 
3330 1 -0.0355675 -0.00107678 -0.0586337 0.000423 -1.62209 -0.069433 0.983968 2650 
3673 1 -0.0103092 -0.018773 -0.0579625 0.000423 -1.57098 -1.4202 -8.75396 2650 
3431 1 -0.0395077 -0.035241 -0.0560544 0.000423 -0.958725 0.122973 0.675719 2650 
4376 1 -0.0402528 -0.0265923 -0.0559904 4.2e-05 1.02595 1.95088 -0.737579 2650 
1915 1 -0.0407919 -0.0143277 -0.0551269 0.000423 -1.479 -0.141799 1.09441 2650 
2703 1 -0.041299 -0.0134261 -0.0551309 0.000116 1.85673 0.789401 -1.39089 2650 
1008 1 -0.0422683 -0.0251433 -0.0540031 0.000423 -0.310603 -0.486472 0.243109 2650 
733 1 -0.0435475 -0.00411159 -0.0533727 0.000116 -1.20481 -0.145534 0.983024 2650 
848 1 -0.0405869 -0.00461419 -0.0520607 0.000116 -1.67843 -0.0965276 2.80971 2650 
2112 1 -0.0451147 -0.0263249 -0.0516489 0.000423 -0.419784 -0.325363 0.366677 2650 
365 1 -0.0448368 -0.021634 -0.0518903 0.000423 -0.767124 -0.0586377 0.662848 2650 
2589 1 -0.0453179 -0.0168403 -0.0518778 0.000116 -2.39238 -0.121617 2.08986 2650 
1528 1 -0.0454093 -0.00430384 -0.0517979 0.000116 -1.53022 -1.17732 1.34148 2650 
3477 1 -0.017199 -0.0046813 -0.051589 0.000116 -2.62599 -0.142548 -7.88642 2650 
4187 1 -0.0454431 -0.000422976 -0.0513602 0.000423 -1.65759 5.76399e-08 1.46662 2650 
453 1 -0.0448119 -0.000692444 -0.0519119 0.000423 -1.66961 0.108725 1.44126 2650 
2765 1 -0.0460194 -0.0340698 -0.0508445 0.000423 0.394732 0.250713 -0.357272 2650 
1612 1 -0.0467188 -0.000392384 -0.0506199 0.000116 -1.60033 0.252955 1.477 2650 
1012 1 -0.0466285 -0.0430884 -0.0502865 0.000423 -0.217848 -0.27875 0.202001 2650 
2100 1 -0.0468382 -0.0411937 -0.0497902 0.000656 -1.18131 -0.304494 1.44219 2650 
3543 1 -0.047802 -0.0285609 -0.0491723 0.000423 -0.692273 -0.409808 0.672981 2650 
3881 1 -0.0476411 -0.0265947 -0.0493282 0.000423 -0.743015 -0.235375 0.717602 2650 
3479 1 -0.0471865 -0.000150941 -0.0492804 0.000116 7.08703 -0.056792 -0.875627 2650 
2396 1 -0.0490568 -0.000447567 -0.0483575 0.000116 -0.700381 -0.0615134 0.710509 2650 
908 1 -0.0500882 -0.0422275 -0.0468414 0.000423 -0.469766 -0.102349 0.502375 2650 
2340 1 -0.050044 -0.0411053 -0.046763 0.000423 -0.512516 -0.093947 0.419428 2650 
3943 1 -0.0503679 -0.0409713 -0.0470986 4.2e-05 5.41619 -0.458808 -5.79215 2650 
2837 1 -0.0503625 -0.0290344 -0.0469961 0.000116 -0.981069 -0.416732 1.05134 2650 
4308 1 -0.0511522 -0.028736 -0.0456772 0.000423 -1.24475 -0.0434609 1.39395 2650 
1922 1 -0.0515697 -0.00931441 -0.0452053 0.000423 -1.28757 -0.0742419 1.46884 2650 
2775 1 -0.0515507 -0.0015921 -0.045227 0.000423 -1.04261 -0.131302 1.18839 2650 
1083 1 -0.051476 -0.000866161 -0.0457738 0.000116 -0.862251 0.0163144 0.969664 2650 
2212 1 -0.0520868 -0.0379469 -0.0442511 0.000656 -1.01192 -0.332869 1.19111 2650 
3812 1 -0.0534674 -0.0429252 -0.0434311 0.000116 -0.985149 -0.321718 1.2128 2650 
138 1 -0.0528185 -0.0268873 -0.0437397 0.000423 -1.25834 -0.0262786 1.51953 2650 
3426 1 -0.0530468 -0.00972003 -0.0434624 0.000423 -0.475108 0.0869403 0.579879 2650 
3647 1 -0.052737 -0.00445318 -0.0438379 0.000423 -1.51883 -0.108738 1.82715 2650 
286 1 -0.0518915 -0.0426353 -0.0431533 0.000116 1.67988 -0.696397 -1.01481 2650 
3418 1 -0.0537025 -0.0231488 -0.0426496 0.000423 -0.690765 0.115727 0.869781 2650 
3807 1 -0.0540781 -0.0226305 -0.0426682 0.000116 -0.750951 0.127913 0.951763 2650 
1161 1 -0.0550244 -0.0043113 -0.0414408 0.000116 -0.993833 -0.175041 1.3196 2650 
534 1 -0.056362 -0.037329 -0.0388951 0.000116 0.450379 1.37273 -7.04341 2650 
4285 1 -0.0561725 -0.00783519 -0.0393396 0.000423 -1.84624 -0.16663 2.63623 2650 
1832 1 -0.0436518 -0.0230986 -0.0377717 0.000116 -0.563156 -2.91141 -3.21369 2650 
1404 1 -0.0578544 -0.0226787 -0.0373883 0.000116 0.157162 -0.585314 -0.243191 2650 
2131 1 -0.0573021 -0.0181 -0.0376751 0.000423 -0.595963 0.36647 0.906433 2650 
2515 1 -0.0579295 -0.00967567 -0.0372718 0.000116 -1.24399 -0.284619 1.93346 2650 
3093 1 -0.0581269 -0.0139129 -0.0363899 0.000423 -1.68603 -0.362647 2.69316 2650 
1563 1 -0.057838 -0.00850455 -0.0368473 0.000423 -1.23602 -0.210066 1.94015 2650 
378 1 -0.0579297 -0.00161757 -0.0367029 0.000423 -0.868586 0.0934448 1.37092 2650 
4264 1 -0.0587384 -0.0311049 -0.036125 4.2e-05 4.23047 0.391568 -6.87865 2650 
3483 1 -0.0589079 -0.0103512 -0.0357055 0.000116 -1.23692 -0.162314 2.0407 2650 
1136 1 -0.0590989 -0.0360407 -0.0347889 0.000423 -0.63044 -0.257339 1.07098 2650 
1558 1 -0.0378349 -0.017786 -0.0354875 0.000423 -5.66913 -1.49366 -5.30793 2650 
336 1 -0.0589947 -0.0292182 -0.0345084 0.000656 -0.914487 -0.0361319 1.56338 2650 
1296 1 -0.059853 -0.0126186 -0.0340976 0.000116 -0.998522 -0.0754097 1.75275 2650 
4362 1 -0.0601104 -0.0113559 -0.0336417 0.000116 -1.09221 -0.495383 1.95155 2650 
2429 1 -0.0596918 -0.0032538 -0.0332879 0.000656 -0.910347 0.226583 1.63243 2650 
379 1 -0.0599106 -0.00197981 -0.0333716 0.000423 -0.828671 -0.0620631 1.48768 2650 
394 1 -0.0605007 -0.0332737 -0.0329345 0.000116 1.49491 -0.28483 -2.74616 2650 
2865 1 -0.0598743 -0.0291197 -0.0329586 0.000656 -0.891241 -0.0746602 1.61907 2650 
2167 1 -0.0604204 -0.00827417 -0.0330816 0.000116 -1.20229 0.040211 2.19587 2650 
1640 1 -0.0503219 -0.00349794 -0.0327312 4.2e-05 -2.33891 -0.823662 -0.685885 2650 
1924 1 -0.0602165 -0.000422987 -0.0328166 0.000423 -1.02887 -5.45349e-08 1.88792 2650 
2355 1 -0.0608134 -0.0017675 -0.0316967 0.000423 -0.990295 0.286816 1.89999 2650 
1481 1 -0.0605013 -0.00104642 -0.0322885 0.000423 -1.00068 -0.0372739 1.87505 2650 
4006 1 -0.0610652 -0.000387981 -0.0318758 0.000116 -1.00516 0.197119 1.9256 2650 
1002 1 -0.0606739 -0.00767886 -0.0314624 0.000656 -1.19714 -0.183133 2.30863 2650 
1379 1 -0.0389821 -0.007596 -0.0314944 0.000116 -5.76925 -0.406188 -4.65497 2650 
4249 1 -0.0612365 -0.00705707 -0.0315455 0.000116 -0.837313 -0.454194 1.6254 2650 
4007 1 -0.0613118 -0.00669375 -0.0313989 0.000116 -0.884998 -0.394577 1.72811 2650 
1968 1 -0.0613267 -0.00101323 -0.0313696 0.000116 -1.06659 0.10423 2.08515 2650 
2023 1 -0.0613946 -0.00158713 -0.0305557 0.000423 -0.972711 0.301188 1.95444 2650 
2998 1 -0.0620379 -0.0226735 -0.0292276 0.000423 -0.340589 -0.290054 0.722928 2650 
1938 1 -0.0618299 -0.0198823 -0.0298387 0.000116 1.68139 -0.314791 0.704859 2650 
2717 1 -0.0622346 -0.0197064 -0.0295277 0.000116 -0.989394 -0.301772 2.08532 2650 
871 1 -0.062213 -0.0186373 -0.0297448 4.2e-05 -0.940656 -0.264384 1.96744 2650 
4106 1 -0.0618762 -0.0177424 -0.0295683 0.000423 -0.92337 -0.199771 1.93229 2650 
3337 1 -0.0619914 -0.0122419 -0.0293261 0.000423 -0.66314 -0.350323 1.40179 2650 
50 1 -0.0618269 -0.00567422 -0.0296712 0.000423 -0.861547 -0.126658 1.79523 2650 
1787 1 -0.0619801 -0.00276678 -0.0293499 0.000423 -0.780402 -0.101746 1.64802 2650 
4377 1 -0.0626786 -0.00721142 -0.0287506 4.2e-05 -0.855986 -0.0858642 1.86612 2650 
3390 1 -0.06273 -0.0027792 -0.0284599 0.000116 -0.784058 -0.334342 1.72819 2650 
2010 1 -0.0624037 -0.00198915 -0.0284382 0.000423 -0.827853 -0.147289 1.81661 2650 
3785 1 -0.0624531 -0.000178569 -0.0287147 0.000116 -1.78515 -0.624157 2.63618 2650 
3516 1 -0.0618912 -0.000699623 -0.0289945 0.000656 -0.824288 -0.0395411 1.75077 2650 
1119 1 -0.062427 -0.0132314 -0.0283869 0.000423 -0.895042 -0.0553653 1.96833 2650 
3041 1 -0.062863 -0.0128574 -0.028165 0.000116 -0.920613 -0.0528802 2.05477 2650 
1568 1 -0.0625272 -0.000430453 -0.0281654 0.000423 -0.794948 -0.00122834 1.76345 2650 
2148 1 -0.0629994 -0.000248992 -0.0278478 0.000116 -0.6264 0.0627689 1.63229 2650 
2476 1 -0.0631557 -0.0305259 -0.0275025 0.000116 0.100815 -0.727508 -0.231507 2650 
3069 1 -0.0632907 -0.0204064 -0.027377 4.2e-05 1.3136 -1.72921 -3.03682 2650 
3692 1 -0.0633125 -0.0178441 -0.0271394 0.000116 -0.700607 -0.722189 1.63442 2650 
1987 1 -0.0626483 -0.00198218 -0.02732 0.000656 -0.667261 0.0404942 1.53011 2650 
4101 1 -0.0628688 -0.000515679 -0.0273943 0.000423 -0.791006 0.0543007 1.79764 2650 
1202 1 -0.063673 -0.0150828 -0.0264756 4.2e-05 -0.996808 -0.636541 2.39729 2650 
3701 1 -0.0634852 -0.00588195 -0.026733 0.000116 -1.16038 0.00965149 2.75565 2650 
2905 1 -0.063134 -0.00103092 -0.026778 0.000423 -0.712406 -0.130211 1.67906 2650 
2353 1 -0.0634802 -0.019811 -0.0257554 0.000423 -0.433758 0.230002 0.377224 2650 
3957 1 -0.0633204 -0.000889068 -0.0257244 0.000656 -0.675537 -0.012979 1.66784 2650 
159 1 -0.0642375 -0.0318821 -0.0240105 0.000423 -1.12315 -0.968967 3.00487 2650 
2877 1 -0.0645181 -0.00759514 -0.0232458 0.000423 -0.676602 -0.262875 1.87789 2650 
2421 1 -0.0642698 -0.00457175 -0.0232508 0.000656 -0.736721 -0.0962818 2.03644 2650 
3331 1 -0.0647823 -0.0396201 -0.0224991 0.000423 -0.530652 -0.245382 1.52792 2650 
358 1 -0.0647443 -0.0375761 -0.0226082 0.000423 0.762005 0.710646 -2.18219 2650 
3440 1 -0.0647981 -0.0239543 -0.0224534 0.000423 -0.532246 0.0448821 1.53601 2650 
693 1 -0.0647219 -0.0143811 -0.0226721 0.000423 -0.446663 -0.210114 1.27508 2650 
2691 1 -0.0648466 -0.0130087 -0.0223128 0.000423 -0.438402 -0.146279 1.27411 2650 
626 1 -0.0651819 -0.00950053 -0.0222789 0.000116 -0.720882 -0.440299 2.1091 2650 
505 1 -0.0651782 -0.00103397 -0.0222895 0.000116 -0.661787 0.00613881 1.93518 2650 
981 1 -0.0654731 -0.0227806 -0.0216445 4.2e-05 1.01961 0.457784 -3.08426 2650 
4254 1 -0.0652655 -0.0155175 -0.0220325 0.000116 -0.537202 -0.211537 1.59132 2650 
1606 1 -0.065287 -0.0131286 -0.0219689 0.000116 -0.318789 -0.453495 0.947372 2650 
2147 1 -0.0652429 -0.00691299 -0.0220994 0.000116 0.632278 2.82746 -1.86664 2650 
3585 1 -0.0652884 -0.00478336 -0.0219648 0.000116 -0.570075 -0.461644 1.6945 2650 
1996 1 -0.0651758 -0.00347149 -0.0213321 0.000423 -0.699476 0.0529177 2.1371 2650 
3378 1 -0.0652471 -0.00245051 -0.022087 0.000116 -0.354893 0.00476348 1.04839 2650 
4052 1 -0.065579 -0.0280551 -0.0213214 4.2e-05 2.16234 0.965366 -6.65078 2650 
3066 1 -0.0659368 -0.0188583 -0.0201877 4.2e-05 -0.605279 -0.167925 1.97695 2650 
3514 1 -0.0655106 -0.028757 -0.0194821 0.000656 -0.272759 -0.109523 0.917181 2650 
3219 1 -0.0657981 -0.00200438 -0.0193279 0.000423 -0.534052 -0.114688 1.81808 2650 
1336 1 -0.0662324 -0.0359987 -0.0177826 0.000423 -0.371734 -0.12865 1.38455 2650 
3963 1 -0.0665366 -0.0201165 -0.0166082 0.000423 -0.536165 -0.321913 2.14801 2650 
3986 1 -0.0664088 -0.00721874 -0.017112 0.000423 -0.532643 -0.00721708 2.06709 2650 
606 1 -0.000183 0.00132636 -0.016592 0.000116 0 -0.011753 0 2650 
4227 1 -0.000413669 0.00367133 -0.0167262 0.000116 0.00593372 -0.017543 0.0130313 2650 
2520 1 -0.000216797 0.00489676 -0.0166272 4.2e-05 0.00318265 0.000380138 0.00682554 2650 
3365 1 -0.00180979 0.00584857 -0.0166334 0.000116 0.0120999 0.0333262 -0.0498495 2650 
1944 1 -0.0669993 -0.00422787 -0.0160037 0.000116 -0.619228 0.100147 2.59238 2650 
2013 1 -0.00299525 0.00309322 -0.0158721 0.000423 -0.00154235 0.00221798 0.00156406 2650 
2301 1 -0.00433556 0.00341599 -0.0160694 4.2e-05 -0.00116259 -0.0070103 0.00459775 2650 
2283 1 -0.00352941 0.00446636 -0.0163818 0.000116 -0.00010552 0.00956354 0.000789399 2650 
889 1 -0.00147176 0.00446258 -0.0161114 0.000656 0.0220635 0.0158109 0.0220891 2650 
978 1 -0.00224092 0.00627261 -0.0164187 0.000116 0.0180122 -0.00353228 -0.00159853 2650 
3934 1 -0.001977 0.00608836 -0.016218 0.000116 0 -0.011753 0 2650 
2726 1 -0.000479493 0.00903091 -0.0157936 0.000116 -0.00741369 0.00988612 -0.041436 2650 
938 1 -0.00151801 0.00992653 -0.0159738 0.000116 -0.00119823 0.000558801 -0.00633771 2650 
302 1 -0.0013305 0.00999144 -0.0164436 0.000116 -0.0434127 0.0256721 -0.0191129 2650 
1483 1 -0.000487197 0.0104172 -0.0165003 0.000423 -0.000431738 0.0094693 0.00416488 2650 
3007 1 -0.00286735 0.0113991 -0.0159979 0.000423 -0.00754521 0.0118776 -0.00214285 2650 
371 1 -0.000424811 0.011862 -0.0162135 0.000423 -0.00963196 0.00951459 -0.00479058 2650 
188 1 -0.00301897 0.0133211 -0.016169 0.000116 -0.0148612 0.0228045 0.00418427 2650 
2851 1 -0.0036187 0.0134568 -0.016392 4.2e-05 -0.261069 -0.140633 0.0469352 2650 
2182 1 -0.00153621 0.0136428 -0.0164036 0.000116 0.00266263 0.0360122 0.0211071 2650 
2713 1 -0.000706578 0.0155511 -0.0159538 0.000116 0.00037122 0.035974 0.00535071 2650 
3051 1 -0.00465744 0.0170277 -0.0158633 0.000116 0.163555 -0.227841 -0.0207843 2650 
3165 1 -0.00535278 0.0190592 -0.0158588 0.000116 -0.224864 0.134576 0.0947812 2650 
456 1 -0.00237015 0.0430924 -0.0162133 0.000423 -0.596008 0.0230783 0.1117 2650 
30 1 -0.00212788 -0.00213414 -0.0154998 0.000423 -0.0139928 -0.0214008 0.00726417 2650 
3599 1 -0.000496826 -0.00174943 -0.0153042 0.000116 0.0260231 -0.00977207 -0.00117121 2650 
3576 1 -0.00117241 -0.00139805 -0.0151624 0.000116 0.0561059 0.00120064 -0.0311085 2650 
2399 1 -0.002418 0.00154036 -0.015541 0.000116 0 -0.011753 0 2650 
3637 1 -0.00536288 0.00413435 -0.0153661 0.000423 -0.00704251 0.0124689 0.006236 2650 
1611 1 -0.00197105 0.00437273 -0.0154601 0.000116 0.0513704 -0.0152435 0.0155029 2650 
1679 1 -0.00425234 0.00487982 -0.0157776 0.000423 -0.00453172 0.0157125 0.00260684 2650 
3830 1 -0.006879 0.00764036 -0.015411 4.2e-05 0 -0.011753 0 2650 
2438 1 -0.00619132 0.0072441 -0.0151423 0.000423 -0.00472103 -0.000373669 -0.00125399 2650 
1827 1 -0.00408342 0.00753079 -0.0151575 0.000116 -0.00517626 -0.0457281 -0.00851659 2650 
2313 1 -0.0033961 0.00784411 -0.0154582 0.000656 0.00750763 0.00230554 0.0199624 2650 
3150 1 -0.00203489 0.0101859 -0.0156339 0.000116 -0.0182263 -0.0087302 -0.0269448 2650 
70 1 -0.00310033 0.0129493 -0.0156076 0.000116 0.0560864 0.0328811 0.00597028 2650 
2793 1 -0.000957858 0.0129862 -0.0152029 0.000423 0.00400332 0.0260717 0.000754087 2650 
93 1 -0.00611246 0.0198064 -0.01567 0.000116 0.0714693 0.0500535 -0.0191255 2650 
2466 1 -0.0034864 0.0224157 -0.0153238 0.000423 0.0618857 0.0331724 -0.00268308 2650 
2585 1 -0.00162895 0.0268226 -0.01505 0.000116 -0.0221426 0.0759057 0.0070692 2650 
1717 1 -0.00387085 0.0301642 -0.0157182 0.000116 -0.014717 0.0706098 -0.0348682 2650 
158 1 -0.0670624 -0.00820373 -0.0143381 0.000423 -0.485742 -0.00388568 2.27193 2650 
4244 1 -0.00289868 -0.00308047 -0.0142896 0.000116 -0.0436806 -0.00994679 0.0125723 2650 
736 1 -0.00832196 -0.00158991 -0.0143157 0.000116 -0.0307431 -0.0170391 0.0144389 2650 
1053 1 -0.007469 -0.00230164 -0.014946 0.000116 0 -0.011753 0 2650 
3011 1 -0.000621094 -0.00222341 -0.0144518 0.000423 0.0180353 -0.0317081 -0.0392676 2650 
2626 1 -0.0674057 -0.000981194 -0.0141948 0.000116 -0.364021 0.0767247 1.7286 2650 
1763 1 -0.00406202 -0.00119455 -0.0143591 0.000656 0.0110508 0.03864 0.047043 2650 
509 1 -0.0077925 -0.000744509 -0.0143147 0.000116 -0.00480979 -0.0076817 0.0108723 2650 
2666 1 -0.00775758 0.00158745 -0.0144263 0.000423 -0.0290348 0.0911014 -0.0393087 2650 
857 1 -0.00687921 0.00319978 -0.0148083 0.000116 -0.0623021 0.0193526 0.00200378 2650 
3787 1 -0.00682112 0.00399327 -0.0143611 0.000116 -0.0024271 -0.00223267 -0.0195234 2650 
1192 1 -0.00728107 0.00629974 -0.0149293 0.000116 0.00510585 0.0133553 0.012363 2650 
3364 1 -0.00676519 0.00836409 -0.0144899 0.000116 -0.00179506 0.0163753 -0.0232219 2650 
581 1 -0.00560354 0.00809849 -0.0144581 0.000423 0.00044719 0.0010883 0.00185987 2650 
233 1 -0.00340625 0.00878202 -0.0144066 0.000423 0.0114684 -0.00558491 0.0116559 2650 
86 1 -0.00482967 0.0107827 -0.0149423 0.000116 -0.0196067 0.0126222 0.000798653 2650 
2969 1 -0.00258246 0.0108258 -0.0149036 0.000656 -0.00667616 0.014076 0.00443217 2650 
2781 1 -0.00584321 0.0111952 -0.0149772 0.000423 0.00977627 0.0105103 0.0120467 2650 
3838 1 -0.00523854 0.0138994 -0.0149555 0.000656 0.0059045 0.0308137 -0.0288407 2650 
1228 1 -0.0024117 0.0134282 -0.0147619 0.000423 -0.0165199 0.0339339 0.00467854 2650 
3644 1 -0.00129321 0.0140228 -0.014846 0.000423 -0.00424564 0.0328325 0.0133159 2650 
2924 1 -0.00865732 0.0164538 -0.014323 0.000116 -0.0500795 0.0331408 0.0243033 2650 
4234 1 -0.004855 0.033501 -0.0146714 0.000116 0.00512064 0.0508026 0.0366661 2650 
1195 1 -0.00362657 0.0342465 -0.0148164 0.000116 0.0557766 0.0782116 -0.0138054 2650 
2614 1 -0.00116197 0.0530433 -0.0142303 0.000116 -0.0792369 -0.0730102 0.0417576 2650 
2863 1 -0.000356988 0.0557543 -0.0145639 0.000656 0.082673 0.111978 0.0235271 2650 
3603 1 -0.067428 -0.0165674 -0.0140884 0.000116 -0.452443 -0.048267 2.16543 2650 
4094 1 -0.0671777 -0.00405094 -0.0137878 0.000423 -0.415021 -0.0936207 2.0221 2650 
991 1 -0.0669262 -0.00299839 -0.0138594 0.000656 -0.410954 -0.0975589 1.98447 2650 
542 1 -0.0676038 -0.00128252 -0.0135991 4.2e-05 -0.375698 0.019495 1.86767 2650 
1991 1 -0.00824926 0.000197119 -0.0138844 0.000656 -0.0192457 -0.00223252 0.00858771 2650 
2609 1 -0.00838754 0.00105347 -0.0135685 0.000116 -0.00705034 0.0126459 0.00789545 2650 
2473 1 -0.00857329 0.00173683 -0.0139965 0.000423 -0.0442117 0.037927 0.0421781 2650 
2913 1 -0.00950157 0.00330968 -0.0135261 0.000116 -0.0031719 -0.0208365 0.00893463 2650 
763 1 -0.00714551 0.00356334 -0.013624 4.2e-05 -0.0107376 -0.0192397 -0.014763 2650 
220 1 -0.00332479 0.00362393 -0.0137935 4.2e-05 0.00197382 0.00663681 0.00671825 2650 
3446 1 -0.000101884 0.00331956 -0.0134248 0.000423 0.016221 -0.0142776 -0.00742368 2650 
1288 1 -0.002467 0.00526936 -0.014044 0.000116 0 -0.011753 0 2650 
3515 1 -0.00848588 0.00646904 -0.0136779 0.000656 -0.00454215 -0.00749919 0.00616721 2650 
1618 1 -0.00954411 0.00759778 -0.0138039 0.000116 0.0059414 0.00192455 -0.00369393 2650 
1769 1 -0.00850226 0.00796581 -0.0137798 0.000656 -0.00763615 -0.00751468 0.00847974 2650 
4368 1 -0.00033984 0.00863838 -0.0138591 0.000116 0.0213285 8.20602e-05 -0.0260591 2650 
4190 1 -0.00919552 0.0093356 -0.0136776 0.000423 -0.00788233 0.00684233 0.00501954 2650 
842 1 -0.00766974 0.00887283 -0.0137382 0.000116 -0.0132472 -0.000581938 -0.0143857 2650 
1409 1 -0.000462153 0.00904458 -0.0138797 0.000116 -0.00338114 -0.0124825 -0.00177889 2650 
1476 1 -0.00754145 0.0100686 -0.0134215 0.000423 -0.00236736 0.00331055 0.000231161 2650 
2774 1 -0.00628195 0.0101668 -0.0141412 0.000423 -0.0403569 0.0250138 -0.0137733 2650 