ITEM: TIMESTEP
10754808
ITEM: NUMBER OF ATOMS
4286
ITEM: BOX BOUNDS ff ff ff
-0.15 0.15
-0.15 0.06
-0.15 0.15
ITEM: ATOMS id type x y z radius vx vy vz density 
198 1 -0.00151949 -0.0624932 -0.0688586 0.000116 8.52906 0.0187622 -0.0290326 2650 
3054 1 -0.000989226 -0.0548388 -0.068877 0.000116 1.14138 -1.24331 -0.0163928 2650 
4036 1 -0.000128686 -0.0549486 -0.068884 0.000116 -1.01594 -0.00913513 0.00189793 2650 
574 1 -0.00288408 -0.0619693 -0.0685062 0.000423 5.28821 0.401392 -0.416366 2650 
816 1 -0.00886134 -0.0614705 -0.0680032 0.000423 2.93342 0.365913 -0.382257 2650 
615 1 -0.0101779 -0.0590587 -0.0681281 0.000116 2.11014 0.137276 -0.315242 2650 
2103 1 -0.00509963 -0.0543417 -0.0683883 0.000423 4.94741 0.963108 -0.368922 2650 
51 1 -0.00513763 -0.0523925 -0.0683853 0.000423 0.852115 -0.17068 -0.0640174 2650 
1323 1 -0.00308181 -0.0511469 -0.0682766 0.000656 0.511888 -0.411847 -0.0231051 2650 
2418 1 -0.00825841 -0.0504917 -0.0684617 4.2e-05 -3.73577 0.612998 0.450639 2650 
2274 1 -0.011462 -0.046327 -0.0679238 0.000116 4.19923 0.0553107 -0.708613 2650 
2012 1 -0.0103985 -0.0577863 -0.0677851 0.000423 2.47522 1.28243 -0.379713 2650 
578 1 -0.0139215 -0.0494133 -0.0671501 0.000423 1.72127 -0.0513767 -0.356853 2650 
3096 1 -0.00968539 -0.0483695 -0.0678906 0.000423 0.253377 -0.837144 -0.0361471 2650 
1417 1 -0.0132101 -0.0452502 -0.0676056 0.000116 -0.520277 0.171176 0.101662 2650 
1699 1 -0.0148259 -0.062241 -0.0669562 0.000423 -0.637693 0.29489 0.141204 2650 
1856 1 -0.0185232 -0.0611448 -0.0663469 0.000116 -1.93072 -0.107347 0.539032 2650 
3357 1 -0.0164034 -0.0583484 -0.0669025 0.000116 2.68123 0.121988 -0.657395 2650 
3399 1 -0.021486 -0.0506107 -0.065368 4.2e-05 5.8862 -0.724188 -2.04984 2650 
2083 1 -0.0270104 -0.0531904 -0.063448 4.2e-05 7.55597 0.880518 -3.21664 2650 
872 1 -0.0298481 -0.054899 -0.0621635 4.2e-05 3.90194 0.88657 -1.87354 2650 
3966 1 -0.0302435 -0.0621391 -0.061549 0.000423 -0.962301 0.486389 0.472819 2650 
1380 1 -0.0333939 -0.0495452 -0.0602484 0.000116 3.00944 -0.82823 -1.66804 2650 
4305 1 -0.0319103 -0.0492191 -0.0607016 0.000423 -0.294355 0.146042 0.15474 2650 
3265 1 -0.0351172 -0.0583384 -0.0592605 0.000116 2.04398 0.736189 -1.21124 2650 
3372 1 -0.0387354 -0.0545606 -0.0569613 0.000116 1.84469 -0.144742 -1.25444 2650 
902 1 -0.0397259 -0.0458843 -0.0558999 0.000423 0.102587 0.327001 -0.0729045 2650 
1164 1 -0.0424077 -0.0598737 -0.0542828 0.000116 11.0316 0.691936 -8.61824 2650 
3381 1 -0.0441914 -0.0500593 -0.0528408 0.000116 7.7701 -0.407684 -6.49823 2650 
1943 1 -0.0496181 -0.0598428 -0.0477814 0.000116 2.47582 0.269643 -2.57099 2650 
1958 1 -0.0525584 -0.0608604 -0.0445268 0.000116 -0.728001 -0.0865235 0.859317 2650 
1768 1 -0.0517099 -0.058698 -0.044691 0.000656 -0.227383 -0.349145 0.263094 2650 
1805 1 -0.0518469 -0.0511332 -0.044887 0.000423 -0.0360592 0.599972 0.0416503 2650 
3260 1 -0.0552885 -0.0588942 -0.0410878 0.000116 -0.398411 -0.108462 0.53611 2650 
1961 1 -0.0567289 -0.0611011 -0.039075 0.000116 1.03656 -0.69959 -1.50488 2650 
3013 1 -0.0568717 -0.0556557 -0.0383218 0.000423 -0.276861 0.0688009 0.410876 2650 
3143 1 -0.0571828 -0.0503251 -0.0384076 0.000116 1.21793 -0.827674 -1.8133 2650 
1046 1 -0.0585356 -0.061265 -0.0363127 0.000116 -0.43915 -1.16111 0.707905 2650 
1107 1 -0.063114 -0.0579996 -0.0262264 0.000656 -0.280892 -0.621749 0.675967 2650 
1712 1 -0.063909 -0.0462875 -0.0257034 0.000116 0.00934439 0.140651 -0.0232339 2650 
1419 1 -0.0643865 -0.0585947 -0.0244826 0.000116 -0.585801 -0.423124 1.54059 2650 
3375 1 -0.0642402 -0.0460516 -0.0248641 0.000116 1.06906 0.969592 -2.76208 2650 
3547 1 -0.0668276 -0.0619525 -0.0147921 0.000423 0.361653 -0.673773 -0.847712 2650 
2042 1 -0.0673578 -0.0550365 -0.0144206 0.000116 0.359914 0.29182 -1.68114 2650 
2271 1 -0.0678092 -0.0580137 -0.0121223 0.000116 2.74672 0.757906 -15.3646 2650 
854 1 -0.0678149 -0.055843 -0.0120901 0.000116 2.28432 1.05965 -12.8131 2650 
3549 1 -0.067958 -0.0533265 -0.00920081 0.000423 0.0940581 0.222397 -0.694721 2650 
4048 1 -0.0689578 -0.0470398 -0.000193412 4.2e-05 0.00746876 0.299249 -2.66286 2650 
2186 1 -0.0682982 -0.0605091 0.00499825 0.000116 -2.07784 0.999891 -1.30927 2650 
577 1 -0.0683633 -0.0529885 0.00542341 0.000423 0.0901309 -0.393244 1.13612 2650 
2123 1 -0.0683119 -0.0623299 0.00600444 0.000423 0.626704 -0.536852 -0.66229 2650 
2823 1 -0.0681105 -0.0609052 0.00655248 0.000116 0.822943 2.57393 0.250471 2650 
420 1 -0.0675419 -0.0565983 0.0135319 0.000116 -0.118674 0.312811 -0.592335 2650 
3505 1 -0.0666184 -0.061647 0.0157893 4.2e-05 -0.274127 2.19831 0.712481 2650 
1407 1 -0.0670685 -0.0615669 0.0157111 0.000116 0.0265714 -1.31299 0.113429 2650 
786 1 -0.0653114 -0.055606 0.0209133 0.000423 -0.871443 -0.573608 -2.72148 2650 
947 1 -0.0651099 -0.0626379 0.0224763 0.000116 -0.30046 1.65673 -1.1705 2650 
3688 1 -0.0642145 -0.0621959 0.0249319 0.000116 -1.56609 0.481948 -4.27847 2650 
1231 1 -0.0636759 -0.0623187 0.0254626 0.000423 -1.69007 0.035152 -4.22645 2650 
2165 1 -0.0639011 -0.0503935 0.0257231 0.000116 -1.94041 -0.5888 -4.82034 2650 
2051 1 -0.0637343 -0.0462714 0.0261335 0.000116 -0.714883 -0.854648 -1.74346 2650 
319 1 -0.0609542 -0.0620798 0.0280076 0.000116 -8.78285 0.109394 -6.7321 2650 
2234 1 -0.0620327 -0.0486752 0.0292385 0.000423 0.078816 -0.210428 0.167217 2650 
4331 1 -0.0617187 -0.0559802 0.0305912 0.000116 -1.58991 1.4131 -3.20768 2650 
2314 1 -0.0604902 -0.0602117 0.0318142 0.000656 -1.51588 -0.220184 -2.88222 2650 
2198 1 -0.0606706 -0.0591114 0.0327763 4.2e-05 -4.47853 -1.5212 -8.28997 2650 
1185 1 -0.0605412 -0.0530532 0.03286 0.000116 -1.78234 0.859205 -3.28377 2650 
2037 1 -0.0596092 -0.0622211 0.034522 0.000116 -4.40267 0.209089 -7.60212 2650 
3153 1 -0.0561686 -0.0490636 0.0398762 0.000116 -1.14296 1.11131 -1.60995 2650 
4306 1 -0.0548413 -0.062377 0.0411758 0.000423 -5.68 1.57797e-07 -7.56509 2650 
1227 1 -0.0548326 -0.0529274 0.0411865 0.000423 -0.481497 0.279059 -0.641028 2650 
4098 1 -0.0545262 -0.0515573 0.0415913 0.000423 0.519376 -0.041191 0.680902 2650 
2052 1 -0.0522942 -0.0551935 0.0448368 0.000116 -1.57644 0.716834 -1.83864 2650 
400 1 -0.0491509 -0.0583091 0.0482619 0.000116 -2.42581 -0.667916 -2.47049 2650 
1865 1 -0.0232057 -0.0597454 0.0532899 4.2e-05 -6.9278 1.36591 -7.67025 2650 
4023 1 -0.0434945 -0.050168 0.0534158 0.000116 -1.25108 -0.618871 -1.0187 2650 
917 1 -0.0417326 -0.0597763 0.0544182 0.000423 -0.33061 0.00364837 -0.25354 2650 
201 1 -0.0420972 -0.0584808 0.0545238 0.000116 3.80133 -0.983225 2.93497 2650 
3090 1 -0.0404906 -0.0538455 0.0553485 0.000423 0.70496 0.092868 0.515718 2650 
1752 1 -0.0384267 -0.0557184 0.0572591 4.2e-05 4.70714 -3.70462 3.15897 2650 
3747 1 -0.0364597 -0.0527069 0.058083 0.000423 0.751017 -1.13321 0.471426 2650 
3817 1 -0.0342934 -0.0523822 0.059741 0.000116 -1.3468 0.979226 -0.773107 2650 
3577 1 -0.0334515 -0.0483293 0.0602165 0.000116 -7.19336 -0.655765 -3.99605 2650 
4229 1 -0.0324256 -0.0599589 0.060775 0.000116 -2.86326 -0.265051 -1.52765 2650 
739 1 -0.0267555 -0.0481981 0.0634757 0.000116 2.52778 0.449341 1.06548 2650 
2247 1 -0.0243244 -0.0597529 0.0641193 0.000423 -2.69132 0.107733 -1.02098 2650 
1955 1 -0.0236549 -0.0561256 0.0646952 0.000116 -1.59855 0.0220119 -0.584488 2650 
1208 1 -0.0195885 -0.0551684 0.0661173 4.2e-05 -2.93234 0.0384167 -0.86876 2650 
3933 1 -0.0163531 -0.0458763 0.0669149 0.000116 -1.64626 0.533416 -0.402324 2650 
2527 1 -0.0129958 -0.0498292 0.0677224 4.2e-05 -2.82822 -2.36292 -0.54273 2650 
3140 1 -0.0140729 -0.0491535 0.0674313 0.000116 -2.72149 0.560063 -0.567975 2650 
4307 1 -0.00915735 -0.0623355 0.0679641 0.000423 -4.63026 0.681748 -0.616578 2650 
312 1 -0.00311421 -0.0592281 0.0688137 0.000116 -1.11376 -1.31536 -0.0504042 2650 
528 1 -0.000644046 -0.0152653 -0.0688811 0.000116 -1.31047 0.100511 0.012253 2650 
322 1 -0.00582841 -0.00587046 -0.0687113 4.2e-05 -3.07705 0.520817 0.264868 2650 
2959 1 -0.00546576 -0.00256139 -0.0687411 4.2e-05 -3.15782 0.0813796 0.251085 2650 
2376 1 -0.0032745 -0.00257006 -0.0688063 0.000116 -2.31236 -0.168896 0.110045 2650 
1550 1 -0.00136618 -0.0225253 -0.0683325 0.000656 -0.77965 0.381461 0.0155876 2650 
1453 1 -0.00475343 -0.0175268 -0.0684131 0.000423 -1.27885 0.146553 0.0888558 2650 
2248 1 -0.00962608 -0.012641 -0.0678991 0.000423 -0.504772 -0.264441 0.0715616 2650 
152 1 -0.00447766 -0.00649556 -0.0684317 0.000423 -1.98684 -0.0849527 0.130004 2650 
2873 1 -0.00218382 -0.00535718 -0.0685433 0.000423 -0.357258 0.0611229 0.0113824 2650 
2367 1 -0.00844333 -0.00192231 -0.0683647 0.000116 -0.825774 -0.254545 0.101987 2650 
1886 1 -0.00849297 -0.00110343 -0.0680501 0.000423 -0.963062 -0.0777769 0.120195 2650 
491 1 -0.00455398 -0.00094921 -0.0684267 0.000423 -2.46965 -0.046714 0.164362 2650 
4110 1 -0.00970575 -0.0369562 -0.0678878 0.000423 -1.25765 -0.318528 0.179803 2650 
2790 1 -0.0138173 -0.0329167 -0.0671717 0.000423 -1.42114 -0.0443082 0.292331 2650 
4372 1 -0.0120764 -0.00518207 -0.0678923 4.2e-05 4.43334 -0.69597 -0.788582 2650 
1341 1 -0.0156898 -0.0357514 -0.0667591 0.000423 -1.45304 -0.197711 0.341495 2650 
3743 1 -0.0168128 -0.0229381 -0.0664852 0.000423 -0.158365 0.20484 0.0400475 2650 
2310 1 -0.016654 -0.0217816 -0.0669168 4.2e-05 -1.95143 -1.98813 0.485664 2650 
827 1 -0.018053 -0.0153614 -0.0664764 0.000116 -0.761632 -0.843733 0.206837 2650 
2139 1 -0.0153494 -0.00564263 -0.0668382 0.000423 -1.01332 0.354238 0.23271 2650 
13 1 -0.0143544 -0.0062686 -0.0670589 0.000423 -0.993483 0.249797 0.212662 2650 
4297 1 -0.0168095 -0.00251525 -0.066486 0.000423 -2.26782 -0.0673463 0.57337 2650 
2208 1 -0.0156693 -0.00313061 -0.0665258 0.000656 -2.2652 -0.140588 0.533542 2650 
3350 1 -0.0158593 -0.000386117 -0.0666667 0.000116 3.60994 -0.0417307 -4.59294 2650 
3393 1 -0.0198269 -0.0162483 -0.0660462 4.2e-05 -5.79114 -1.38333 1.73848 2650 
1462 1 -0.0198095 -0.00919232 -0.0656546 0.000423 -1.20959 0.1562 0.364961 2650 
440 1 -0.0190974 -0.00471022 -0.0662494 4.2e-05 -3.0055 -0.097567 1.15464 2650 
3741 1 -0.0208347 -0.0371825 -0.0653365 0.000423 -0.752967 -0.146807 0.240108 2650 
2349 1 -0.0216229 -0.0174586 -0.0650799 0.000423 0.539597 0.264409 -0.179281 2650 
2711 1 -0.0215639 -0.0157843 -0.0654219 0.000116 1.43706 -0.251976 -0.473673 2650 
822 1 -0.022123 -0.0009489 -0.0649116 0.000423 -1.60391 0.0522455 0.546641 2650 
1616 1 -0.0252248 -0.0351837 -0.0640994 0.000116 -0.524655 -0.563491 0.206465 2650 
2634 1 -0.025551 -0.0120259 -0.0640496 4.2e-05 1.29725 2.26025 -0.517536 2650 
1132 1 -0.0233229 -0.00672833 -0.0644903 0.000423 -1.53621 0.133284 0.555569 2650 
4213 1 -0.0230507 -0.000628646 -0.064588 0.000423 -1.34483 0.36903 0.479952 2650 
2091 1 -0.0260141 -0.0324495 -0.0632018 0.000656 -0.563095 -0.266469 0.231772 2650 
3887 1 -0.0279552 -0.0417568 -0.062621 0.000423 0.868094 -0.448477 -0.591772 2650 
3673 1 -0.0175739 -0.022847 -0.0631124 0.000423 -3.00456 -1.23935 0.411101 2650 
2728 1 -0.0210731 -0.0420769 -0.0620085 0.000116 6.31821 -0.814037 0.497573 2650 
1278 1 -0.0299341 -0.0307172 -0.0620401 0.000116 0.365996 2.02837 -0.176591 2650 
3636 1 -0.0316259 -0.026296 -0.0608502 0.000423 -1.33026 0.280612 0.69138 2650 
1224 1 -0.0313208 -0.0022049 -0.0610079 0.000423 -1.83942 0.107892 0.944336 2650 
4150 1 -0.0320914 -0.000192691 -0.0609522 0.000116 -1.87457 0.368377 0.986965 2650 
2875 1 -0.0304035 -0.000494064 -0.0614701 0.000423 -1.80699 -0.0278061 0.893745 2650 
3582 1 -0.0331998 -0.0240856 -0.0603556 0.000116 -1.38629 0.51197 0.762558 2650 
3477 1 -0.0252145 -0.00509624 -0.0607241 0.000116 -2.60609 -0.121914 1.66076 2650 
1047 1 -0.0333462 -0.00275441 -0.0602748 0.000116 -1.37651 -0.192707 0.761538 2650 
3904 1 -0.0330668 -0.00168857 -0.0604285 0.000116 -1.65823 0.0616651 0.90739 2650 
3748 1 -0.0335272 -0.0348184 -0.0598237 0.000423 -1.02257 -0.283048 0.573082 2650 
343 1 -0.0335071 -0.000780597 -0.059835 0.000423 -1.70673 -0.0226129 0.955754 2650 
1945 1 -0.0362662 -0.0171921 -0.0585644 0.000116 -1.56249 0.249935 0.967579 2650 
2703 1 -0.0352329 -0.0110777 -0.0591918 0.000116 1.99349 0.702187 -1.18659 2650 
2143 1 -0.0362382 -0.0374092 -0.0582215 0.000423 -1.15432 -0.270354 0.718474 2650 
1239 1 -0.0366649 -0.0356547 -0.0579537 0.000423 -0.606111 -0.268639 0.383461 2650 
2018 1 -0.0364027 -0.0342753 -0.0581188 0.000423 -1.21633 -0.158039 0.761846 2650 
4376 1 -0.0369578 -0.0205163 -0.0582179 4.2e-05 1.06677 1.90894 -0.677203 2650 
3479 1 -0.0298431 -0.000359996 -0.0582999 0.000116 4.15484 -0.076021 -4.97075 2650 
1082 1 -0.0379269 -0.0339569 -0.0575028 0.000116 -0.529311 -0.849826 0.349116 2650 
2846 1 -0.0379097 -0.00902159 -0.0576027 4.2e-05 -1.97452 -0.611184 1.29948 2650 
502 1 -0.0389355 -0.0164563 -0.0568247 0.000116 -0.883 -0.228375 0.60502 2650 
3330 1 -0.0405327 -0.00131251 -0.0553177 0.000423 -1.53035 -0.0802999 1.12133 2650 
4264 1 -0.0417733 -0.0296313 -0.0548653 4.2e-05 6.42509 0.541532 -4.89193 2650 
3196 1 -0.0411284 -0.00466196 -0.0548762 0.000423 -1.68613 -0.177695 1.26371 2650 
3431 1 -0.0424671 -0.034864 -0.0538469 0.000423 -0.92097 0.116507 0.726336 2650 
1008 1 -0.0432392 -0.0266926 -0.053229 0.000423 -0.30615 -0.497799 0.248693 2650 
534 1 -0.0446343 -0.0320005 -0.0522802 0.000116 2.22584 3.7109 -1.59809 2650 
2765 1 -0.0447493 -0.0333213 -0.0519658 0.000423 0.443649 0.19488 -0.382079 2650 
1915 1 -0.045297 -0.0147671 -0.0514892 0.000423 -1.3814 -0.137303 1.21527 2650 
2112 1 -0.0464214 -0.0273663 -0.0504778 0.000423 -0.410266 -0.336183 0.377297 2650 
365 1 -0.0472024 -0.0218254 -0.0497482 0.000423 -0.735455 -0.0629086 0.697819 2650 
733 1 -0.0472272 -0.00448292 -0.0501459 0.000116 -1.13197 -0.0903418 1.06609 2650 
1012 1 -0.0473099 -0.0439814 -0.0496459 0.000423 -0.215073 -0.288549 0.204954 2650 
1832 1 -0.0462494 -0.0322004 -0.0497554 0.000116 3.06557 -2.78693 -1.64353 2650 
286 1 -0.049103 -0.0448862 -0.0483106 0.000116 1.24758 -0.739347 -1.26805 2650 
1528 1 -0.0500234 -0.008014 -0.047357 0.000116 -1.39902 -1.17926 1.47779 2650 
848 1 -0.0495007 -0.00494251 -0.0474443 0.000116 -2.18069 -0.1053 2.38828 2650 
3543 1 -0.0499337 -0.0298584 -0.0470061 0.000423 -0.661776 -0.414421 0.702992 2650 
3881 1 -0.0499258 -0.0273415 -0.0470145 0.000423 -0.708164 -0.239077 0.752016 2650 
453 1 -0.0498341 -0.000430753 -0.0471117 0.000423 -1.52449 -0.0146332 1.61259 2650 
2100 1 -0.0506458 -0.0421949 -0.0458934 0.000656 -1.02141 -0.399161 1.12734 2650 
2396 1 -0.0512099 -0.000469358 -0.0460713 0.000116 -0.667269 0.0476702 0.741694 2650 
4187 1 -0.0504242 -0.000422973 -0.0464795 0.000423 -1.50169 7.76428e-06 1.62914 2650 
1612 1 -0.0484578 -0.000208304 -0.0465152 0.000116 0.160581 -0.151545 0.506679 2650 
908 1 -0.051542 -0.0425574 -0.0452369 0.000423 -0.453698 -0.107229 0.516934 2650 
2340 1 -0.0511891 -0.041189 -0.0456357 0.000423 -0.543583 0.393399 0.609642 2650 
2589 1 -0.0523462 -0.0172222 -0.0447761 0.000116 -2.06488 -0.120901 2.41398 2650 
2837 1 -0.0533401 -0.0303583 -0.0435873 0.000116 -0.909908 -0.424284 1.1135 2650 
1083 1 -0.0540984 -0.000843066 -0.0426425 0.000116 -0.803266 -0.00164298 1.01906 2650 
3943 1 -0.0546528 -0.0274094 -0.0420509 4.2e-05 -2.21511 4.96062 2.87896 2650 
1558 1 -0.0504577 -0.0222335 -0.0422008 0.000423 -1.09202 -1.29311 2.97098 2650 
394 1 -0.055194 -0.0342986 -0.0412147 0.000116 1.87075 -0.365978 -2.50528 2650 
4308 1 -0.0548779 -0.0288562 -0.0411263 0.000423 -1.12073 -0.0328638 1.49548 2650 
1922 1 -0.0547771 -0.00926425 -0.0412604 0.000423 -0.853832 0.0722589 1.13354 2650 
2775 1 -0.0546944 -0.00201792 -0.04137 0.000423 -0.953697 -0.139189 1.26086 2650 
2212 1 -0.0551348 -0.0389861 -0.04039 0.000656 -0.923625 -0.327247 1.26081 2650 
4052 1 -0.0555727 -0.0250979 -0.0408275 4.2e-05 4.14057 0.908824 -5.63598 2650 
3426 1 -0.0551996 -0.0097526 -0.0406934 0.000423 -0.801678 -0.0745456 1.08746 2650 
3812 1 -0.0559539 -0.0437253 -0.0401769 0.000116 -0.715758 -0.23656 0.996828 2650 
3807 1 -0.056358 -0.0222395 -0.039608 0.000116 -0.697092 0.120427 0.991889 2650 
3418 1 -0.0558064 -0.0227938 -0.0398572 0.000423 -0.645538 0.109781 0.903856 2650 
138 1 -0.056558 -0.0269593 -0.0387833 0.000423 -1.11575 -0.0194141 1.62711 2650 
1379 1 -0.053468 -0.00885628 -0.0393782 0.000116 -0.546073 -0.378115 3.28717 2650 
1404 1 -0.0573546 -0.024545 -0.0381506 0.000116 0.160366 -0.600385 -0.24109 2650 
1161 1 -0.0579934 -0.00488469 -0.0371724 0.000116 -0.89147 -0.189188 1.3908 2650 
3647 1 -0.0571956 -0.00479901 -0.0378367 0.000423 -1.31091 -0.110908 1.98163 2650 
3069 1 -0.0583499 -0.0251677 -0.0367492 4.2e-05 1.80414 -1.53977 -2.86459 2650 
1640 1 -0.0573343 -0.005873 -0.0365115 4.2e-05 0.739909 -0.578436 -0.68013 2650 
2131 1 -0.0591065 -0.016951 -0.034776 0.000423 -0.550104 0.363474 0.934975 2650 
378 1 -0.0605009 -0.00134282 -0.0322892 0.000423 -0.764136 0.081084 1.43177 2650 
1136 1 -0.0609864 -0.0368578 -0.0313626 0.000423 -0.568348 -0.261742 1.10519 2650 
981 1 -0.0615564 -0.0214849 -0.0310809 4.2e-05 1.46414 0.364944 -2.89975 2650 
2515 1 -0.0615191 -0.0106186 -0.0309907 0.000116 -1.03435 -0.31426 2.05326 2650 
1938 1 -0.0619083 -0.0209032 -0.0301825 0.000116 0.0889771 -0.332851 -0.0323915 2650 
1563 1 -0.0614007 -0.00920338 -0.0305435 0.000423 -1.03259 -0.299589 2.07719 2650 
4285 1 -0.0613506 -0.00836109 -0.030644 0.000423 -1.43117 -0.110092 2.86373 2650 
358 1 -0.0619858 -0.0353088 -0.029338 0.000423 0.988829 0.729436 -2.08921 2650 
336 1 -0.0616651 -0.0293244 -0.0294724 0.000656 -0.78103 -0.0313465 1.63415 2650 
1296 1 -0.0627378 -0.0128566 -0.0284428 0.000116 -0.832925 -0.0757802 1.83723 2650 
3483 1 -0.0624441 -0.0108737 -0.0290818 0.000116 -1.00746 -0.169523 2.1632 2650 
379 1 -0.0623273 -0.00169252 -0.0286051 0.000423 -0.707602 0.140936 1.54179 2650 
3613 1 -0.0630643 -0.0353584 -0.0278945 4.2e-05 3.05313 -3.60638 -6.90256 2650 
2476 1 -0.0628341 -0.0328394 -0.0282294 0.000116 0.10348 -0.74227 -0.230329 2650 
2865 1 -0.0624598 -0.029348 -0.0277484 0.000656 -0.750351 -0.0703417 1.68899 2650 
2429 1 -0.0623363 -0.00269292 -0.0280248 0.000656 -0.767797 0.157479 1.70783 2650 
4006 1 -0.0616161 -0.00014678 -0.0279063 0.000116 0.0912336 -0.00830564 -0.250718 2650 
2998 1 -0.0630681 -0.0236004 -0.0269326 0.000423 -0.313846 -0.298797 0.734934 2650 
3093 1 -0.0627986 -0.0150583 -0.0275551 0.000423 -1.2767 -0.36461 2.90962 2650 
4362 1 -0.0632291 -0.0128727 -0.0273331 0.000116 -0.8874 -0.467963 2.0528 2650 
4249 1 -0.0636748 -0.00767875 -0.0262781 0.000116 -0.70408 -0.172806 1.70606 2650 
1481 1 -0.0633215 -0.00113768 -0.0263313 0.000423 -0.80269 -0.0347087 1.93031 2650 
1924 1 -0.0631357 -0.000423054 -0.0267739 0.000423 -0.829345 -0.000738126 1.95569 2650 
2717 1 -0.0626689 -0.0206707 -0.0256491 0.000116 -0.334439 -0.315915 -0.250141 2650 
871 1 -0.0641226 -0.0191468 -0.0253672 4.2e-05 0.074249 0.0989864 -0.187685 2650 
2167 1 -0.0637873 -0.00803465 -0.0260039 0.000116 -0.814516 -0.0835674 1.99838 2650 
4007 1 -0.0638679 -0.007924 -0.0258053 0.000116 -0.858721 -0.192213 2.12494 2650 
2355 1 -0.0637037 -0.00101582 -0.0253927 0.000423 -0.823087 0.22108 2.06491 2650 
2203 1 -0.0635763 -0.0221404 -0.0250864 0.000656 2.49354 -0.642568 -6.31932 2650 
3963 1 -0.063755 -0.0168169 -0.0252641 0.000423 2.09799 1.81385 -5.2943 2650 
3337 1 -0.0639202 -0.0133556 -0.0248426 0.000423 -0.561756 -0.357074 1.4454 2650 
1968 1 -0.0642111 -0.000409758 -0.024939 0.000116 -0.707895 0.369039 1.82264 2650 
3785 1 -0.0641161 -0.000118361 -0.0251823 0.000116 -0.173364 -0.00509618 0.441399 2650 
2353 1 -0.0641091 -0.0190903 -0.0243511 0.000423 -0.173501 0.225507 0.456775 2650 
1002 1 -0.0639989 -0.00826887 -0.0239864 0.000656 -0.912687 -0.190308 2.43517 2650 
50 1 -0.0642773 -0.00603953 -0.0239036 0.000423 -0.694076 -0.105373 1.86638 2650 
2147 1 -0.0645929 -0.00400789 -0.0239328 0.000116 -0.316006 -0.997852 0.852877 2650 
1787 1 -0.064217 -0.00309143 -0.024065 0.000423 -0.639879 -0.104472 1.7075 2650 
2023 1 -0.0640823 -0.000685779 -0.0244214 0.000423 -0.702072 0.258351 1.84226 2650 
4106 1 -0.0644796 -0.0183619 -0.0233523 0.000423 -0.729253 -0.193678 2.01359 2650 
3390 1 -0.0649595 -0.00372063 -0.0229192 0.000116 -0.631414 -0.263641 1.78961 2650 
2010 1 -0.0644922 -0.0024566 -0.0233176 0.000423 -0.583484 -0.13809 1.61381 2650 
3516 1 -0.0642338 -0.000781561 -0.0233499 0.000656 -0.674023 -0.0127612 1.8542 2650 
4377 1 -0.0650943 -0.0074113 -0.0227582 4.2e-05 -0.677577 -0.0410955 1.93804 2650 
1987 1 -0.0646248 -0.0018431 -0.022245 0.000656 -0.563623 0.0437416 1.6374 2650 
2148 1 -0.0652052 -0.000231766 -0.0222105 0.000116 -0.634761 0.0746333 1.86352 2650 
1568 1 -0.0647896 -0.000472808 -0.0224778 0.000423 -0.648616 -0.00773404 1.86955 2650 
3692 1 -0.0653067 -0.0201376 -0.0219101 0.000116 -0.565613 -0.734604 1.6859 2650 
1119 1 -0.0649328 -0.0134092 -0.0220608 0.000423 -0.69558 -0.0575684 2.04734 2650 
3041 1 -0.0654236 -0.0129433 -0.0215587 0.000116 -0.704679 -0.00163533 2.13847 2650 
2905 1 -0.0651621 -0.00141715 -0.021374 0.000423 -0.577762 -0.108498 1.7614 2650 
4101 1 -0.0650917 -0.000437971 -0.0215876 0.000423 -0.626388 -0.0132829 1.8887 2650 
3378 1 -0.0659356 -0.00252304 -0.019938 0.000116 -0.0949558 -0.0503349 0.314023 2650 
3957 1 -0.0652323 -0.000949974 -0.020395 0.000656 -0.536845 -0.0256907 1.71707 2650 
1202 1 -0.066357 -0.0173379 -0.0187606 4.2e-05 -0.706337 -0.79564 2.49834 2650 
693 1 -0.0660025 -0.0150465 -0.0186178 0.000423 -0.365448 -0.216297 1.29535 2650 
1606 1 -0.0663949 -0.0147767 -0.0183504 0.000116 -0.394862 -0.319978 1.43179 2650 
2691 1 -0.066099 -0.0134529 -0.0182722 0.000423 -0.358033 -0.13725 1.29517 2650 
3331 1 -0.0662728 -0.0403845 -0.0176314 0.000423 -0.415846 -0.240165 1.56308 2650 
3440 1 -0.0662918 -0.0238208 -0.0175599 0.000423 -0.416247 0.0399157 1.57141 2650 
3701 1 -0.066535 -0.00587466 -0.0178356 0.000116 -0.774179 -0.00501837 2.88804 2650 
3514 1 -0.0663054 -0.0291091 -0.0165767 0.000656 -0.232082 -0.11415 0.928308 2650 
4254 1 -0.0667629 -0.0161776 -0.0169629 0.000116 -0.413594 -0.207764 1.62783 2650 
2877 1 -0.0663744 -0.00844093 -0.0172448 0.000423 -0.501933 -0.274348 1.93192 2650 
3585 1 -0.0668632 -0.00625746 -0.016563 0.000116 -0.429876 -0.474705 1.73537 2650 
2421 1 -0.0662657 -0.00489769 -0.0167349 0.000656 -0.53026 -0.110737 2.09968 2650 
3882 1 -0.0136287 -0.00459651 -0.0170301 0.000423 -1.33982 -0.240708 -1.77302 2650 
606 1 -0.000183 0.00128936 -0.016592 0.000116 0 -0.011753 0 2650 
4227 1 -0.000394989 0.0036161 -0.0166852 0.000116 0.00593372 -0.017543 0.0130313 2650 
2520 1 -0.000206778 0.00489796 -0.0166057 4.2e-05 0.00318265 0.000380138 0.00682554 2650 
3365 1 -0.00176343 0.00593308 -0.0166317 0.000116 0.015804 0.0241832 0.0212134 2650 
505 1 -0.0669741 -0.00103526 -0.0161089 0.000116 -0.478282 -0.00695388 1.9885 2650 
2013 1 -0.00300011 0.0031002 -0.0158672 0.000423 -0.00154235 0.00221798 0.00156406 2650 
2301 1 -0.00433922 0.00339392 -0.0160549 4.2e-05 -0.00116259 -0.0070103 0.00459775 2650 
2283 1 -0.00352974 0.00449647 -0.0163793 0.000116 -0.00010552 0.00956354 0.000789399 2650 
889 1 -0.0014023 0.00451235 -0.0160419 0.000656 0.0220635 0.0158109 0.0220891 2650 
978 1 -0.00218421 0.00626149 -0.0164237 0.000116 0.0180122 -0.00353228 -0.00159853 2650 
3934 1 -0.001977 0.00605136 -0.016218 0.000116 0 -0.011753 0 2650 
2726 1 -0.000502832 0.00906203 -0.015924 0.000116 -0.00741369 0.00988612 -0.041436 2650 
938 1 -0.00152178 0.00992829 -0.0159938 0.000116 -0.00119823 0.000558801 -0.00633771 2650 
302 1 -0.00146717 0.0100723 -0.0165038 0.000116 -0.0434127 0.0256721 -0.0191129 2650 
1483 1 -0.000488556 0.010447 -0.0164872 0.000423 -0.000431738 0.0094693 0.00416488 2650 
3007 1 -0.00289111 0.0114365 -0.0160046 0.000423 -0.00754521 0.0118776 -0.00214285 2650 
371 1 -0.000455134 0.011892 -0.0162286 0.000423 -0.00963196 0.00951459 -0.00479058 2650 
2851 1 -0.00444057 0.0130141 -0.0162443 4.2e-05 -0.261069 -0.140633 0.0469352 2650 
188 1 -0.00306575 0.0133929 -0.0161558 0.000116 -0.0148612 0.0228045 0.00418427 2650 
2182 1 -0.00152783 0.0137562 -0.0163372 0.000116 0.00266263 0.0360122 0.0211071 2650 
2713 1 -0.000705409 0.0156644 -0.0159369 0.000116 0.00037122 0.035974 0.00535071 2650 
3051 1 -0.00414255 0.0163105 -0.0159287 0.000116 0.163555 -0.227841 -0.0207843 2650 
1717 1 -0.00391718 0.0303865 -0.015828 0.000116 -0.014717 0.0706098 -0.0348682 2650 
2056 1 -0.00240052 0.0346372 -0.0165318 0.000116 -0.81972 0.13637 0.146054 2650 
456 1 -0.00424645 0.0431651 -0.0158617 0.000423 -0.596008 0.0230783 0.1117 2650 
626 1 -0.0671095 -0.0109007 -0.0155352 0.000116 -0.502675 -0.449013 2.17148 2650 
30 1 -0.00217193 -0.00220151 -0.0154769 0.000423 -0.0139928 -0.0214008 0.00726417 2650 
3599 1 -0.000414902 -0.00178019 -0.0153079 0.000116 0.0260231 -0.00977207 -0.00117121 2650 
3576 1 -0.000995781 -0.00139427 -0.0152603 0.000116 0.0561059 0.00120064 -0.0311085 2650 
2399 1 -0.002418 0.00150336 -0.015541 0.000116 0 -0.011753 0 2650 
3637 1 -0.00538505 0.0041736 -0.0153465 0.000423 -0.00704251 0.0124689 0.006236 2650 
1611 1 -0.00180933 0.00432475 -0.0154112 0.000116 0.0513704 -0.0152435 0.0155029 2650 
1679 1 -0.00426661 0.00492929 -0.0157694 0.000423 -0.00453172 0.0157125 0.00260684 2650 
3830 1 -0.006879 0.00760336 -0.015411 4.2e-05 0 -0.011753 0 2650 
2438 1 -0.00620619 0.00724293 -0.0151462 0.000423 -0.00472103 -0.000373669 -0.00125399 2650 
1827 1 -0.00409971 0.00738683 -0.0151843 0.000116 -0.00517626 -0.0457281 -0.00851659 2650 
2313 1 -0.00337247 0.00785137 -0.0153953 0.000656 0.00750763 0.00230554 0.0199624 2650 
3150 1 -0.00209227 0.0101585 -0.0157188 0.000116 -0.0182263 -0.0087302 -0.0269448 2650 
70 1 -0.00292376 0.0130528 -0.0155888 0.000116 0.0560864 0.0328811 0.00597028 2650 
2793 1 -0.000945255 0.0130683 -0.0152005 0.000423 0.00400332 0.0260717 0.000754087 2650 
3838 1 -0.00521995 0.0139964 -0.0150463 0.000656 0.0059045 0.0308137 -0.0288407 2650 
3165 1 -0.00606068 0.0194828 -0.0155604 0.000116 -0.224864 0.134576 0.0947812 2650 
93 1 -0.00588746 0.0199639 -0.0157302 0.000116 0.0714693 0.0500535 -0.0191255 2650 
2466 1 -0.00329157 0.0225201 -0.0153323 0.000423 0.0618857 0.0331724 -0.00268308 2650 
2585 1 -0.00169866 0.0270616 -0.0150277 0.000116 -0.0221426 0.0759057 0.0070692 2650 
2848 1 -0.0673764 -0.0427128 -0.0146845 4.2e-05 0.128129 1.82673 -0.58789 2650 
159 1 -0.0670652 -0.0349096 -0.0143251 0.000423 -0.670093 -0.9534 3.13714 2650 
1996 1 -0.067027 -0.0033046 -0.0145027 0.000423 -0.47554 0.0530808 2.1978 2650 
4244 1 -0.00303619 -0.00311178 -0.01425 0.000116 -0.0436806 -0.00994679 0.0125723 2650 
736 1 -0.00841874 -0.00164356 -0.0142702 0.000116 -0.0307431 -0.0170391 0.0144389 2650 
1053 1 -0.007469 -0.00233864 -0.014946 0.000116 0 -0.011753 0 2650 
3011 1 -0.000564317 -0.00232323 -0.0145755 0.000423 0.0180353 -0.0317081 -0.0392676 2650 
1763 1 -0.00402723 -0.00107291 -0.014211 0.000656 0.0110508 0.03864 0.047043 2650 
509 1 -0.00780764 -0.000768692 -0.0142805 0.000116 -0.00480979 -0.0076817 0.0108723 2650 
2666 1 -0.00781312 0.00186517 -0.0144962 0.000423 0.0108489 0.0809916 0.0205028 2650 
857 1 -0.00707535 0.00326071 -0.014802 0.000116 -0.0623021 0.0193526 0.00200378 2650 
3787 1 -0.00682876 0.00398624 -0.0144226 0.000116 -0.0024271 -0.00223267 -0.0195234 2650 
1192 1 -0.00726499 0.00634178 -0.0148904 0.000116 0.00510585 0.0133553 0.012363 2650 
3364 1 -0.00677084 0.00841564 -0.014563 0.000116 -0.00179506 0.0163753 -0.0232219 2650 
581 1 -0.00560213 0.00810191 -0.0144522 0.000423 0.00044719 0.0010883 0.00185987 2650 
233 1 -0.00337015 0.00876444 -0.0143699 0.000423 0.0114684 -0.00558491 0.0116559 2650 
86 1 -0.00489139 0.0108224 -0.0149398 0.000116 -0.0196067 0.0126222 0.000798653 2650 
2969 1 -0.00260348 0.0108701 -0.0148896 0.000656 -0.00667616 0.014076 0.00443217 2650 
2781 1 -0.00581243 0.0112283 -0.0149392 0.000423 0.00977627 0.0105103 0.0120467 2650 
1228 1 -0.00246371 0.0135351 -0.0147472 0.000423 -0.0165199 0.0339339 0.00467854 2650 
2191 1 -0.00223015 0.0134255 -0.0142985 4.2e-05 -0.0219515 0.010649 -0.0334451 2650 
3644 1 -0.00130658 0.0141261 -0.0148041 0.000423 -0.00424564 0.0328325 0.0133159 2650 
2924 1 -0.00881497 0.0165582 -0.0142465 0.000116 -0.0500795 0.0331408 0.0243033 2650 
4234 1 -0.00483888 0.0336609 -0.014556 0.000116 0.00512064 0.0508026 0.0366661 2650 
1195 1 -0.00345098 0.0344927 -0.0148599 0.000116 0.0557766 0.0782116 -0.0138054 2650 
2863 1 -0.000108787 0.0560171 -0.0144941 0.000656 0.0604357 -0.0531799 0.0156593 2650 
3066 1 -0.067546 -0.0193572 -0.0138834 4.2e-05 -0.41626 -0.148919 2.0252 2650 
3219 1 -0.0672284 -0.0023838 -0.0135385 0.000423 -0.374084 -0.126314 1.8576 2650 
1991 1 -0.00830985 0.000190091 -0.0138574 0.000656 -0.0192457 -0.00223252 0.00858771 2650 
2609 1 -0.00840973 0.00109328 -0.0135436 0.000116 -0.00705034 0.0126459 0.00789545 2650 
2473 1 -0.00871247 0.00185623 -0.0138637 0.000423 -0.0442117 0.037927 0.0421781 2650 
2913 1 -0.00951156 0.00324409 -0.013498 0.000116 -0.0031719 -0.0208365 0.00893463 2650 
763 1 -0.00717931 0.00350277 -0.0136705 4.2e-05 -0.0107376 -0.0192397 -0.014763 2650 
220 1 -0.00331858 0.00364483 -0.0137724 4.2e-05 0.00197382 0.00663681 0.00671825 2650 
3446 1 -5.08188e-05 0.00327462 -0.0134482 0.000423 0.016221 -0.0142776 -0.00742368 2650 
1288 1 -0.002467 0.00523236 -0.014044 0.000116 0 -0.011753 0 2650 
3515 1 -0.00850017 0.00644543 -0.0136585 0.000656 -0.00454215 -0.00749919 0.00616721 2650 
1618 1 -0.0095254 0.00760384 -0.0138155 0.000116 0.0059414 0.00192455 -0.00369393 2650 
1769 1 -0.0085263 0.00794215 -0.0137531 0.000656 -0.00763615 -0.00751468 0.00847974 2650 
4368 1 -0.000272696 0.00863864 -0.0139412 0.000116 0.0213285 8.20602e-05 -0.0260591 2650 
4190 1 -0.00922033 0.00935714 -0.0136618 0.000423 -0.00788233 0.00684233 0.00501954 2650 
842 1 -0.00771145 0.008871 -0.0137835 0.000116 -0.0132472 -0.000581938 -0.0143857 2650 
1409 1 -0.000472797 0.00900528 -0.0138853 0.000116 -0.00338114 -0.0124825 -0.00177889 2650 
793 1 -9.76374e-06 0.0093252 -0.0137423 0.000423 -0.00384688 0.00642406 -0.0108379 2650 
2774 1 -0.00640899 0.0102455 -0.0141846 0.000423 -0.0403569 0.0250138 -0.0137733 2650 