ITEM: TIMESTEP
11305506
ITEM: NUMBER OF ATOMS
4280
ITEM: BOX BOUNDS ff ff ff
-0.15 0.15
-0.15 0.06
-0.15 0.15
ITEM: ATOMS id type x y z radius vx vy vz density 
2165 1 -0.00465308 -0.0610264 -0.0687272 0.000116 14.4895 -0.147472 -1.10106 2650 
3143 1 -0.00227932 -0.0615144 -0.0687148 0.000116 8.03811 0.156259 1.18024 2650 
3096 1 -0.00482725 -0.0618309 -0.0684074 0.000423 0.621249 0.272296 -0.00901042 2650 
400 1 -0.00995998 -0.0606656 -0.0681603 0.000116 11.6924 1.04236 -1.70857 2650 
1616 1 -0.00862564 -0.0460582 -0.0683419 0.000116 2.78702 -0.700995 -0.351759 2650 
3887 1 -0.0102914 -0.0507334 -0.0678014 0.000423 1.0233 -0.55608 -0.155323 2650 
319 1 -0.0131888 -0.049765 -0.0676098 0.000116 6.9114 0.0423621 -1.34823 2650 
4036 1 -0.0191562 -0.0598512 -0.0661669 0.000116 -1.08524 -0.502328 0.31419 2650 
1082 1 -0.0199765 -0.0500999 -0.0659239 0.000116 2.57593 -1.00891 -0.780568 2650 
286 1 -0.0225069 -0.0594504 -0.0651035 0.000116 1.68125 -0.885213 -0.581222 2650 
1833 1 -0.0304911 -0.0498922 -0.0617683 0.000116 5.65175 0.886145 -2.78991 2650 
3943 1 -0.0320389 -0.0546279 -0.0610632 4.2e-05 2.76357 -1.83276 -1.45001 2650 
2198 1 -0.0340957 -0.0542077 -0.0599391 4.2e-05 1.07744 1.68229 -0.612889 2650 
1419 1 -0.0342533 -0.0625087 -0.0591876 0.000116 10.5384 0.0882269 -5.28573 2650 
3577 1 -0.0362945 -0.058002 -0.0585469 0.000116 6.30595 -0.946742 -3.90919 2650 
1231 1 -0.0346502 -0.0540386 -0.0591805 0.000423 4.51706 0.496419 -2.64474 2650 
4305 1 -0.0362915 -0.0475885 -0.0581883 0.000423 -0.122007 0.00610272 0.0760945 2650 
3966 1 -0.0408739 -0.058077 -0.055066 0.000423 -0.542712 0.194001 0.40284 2650 
2837 1 -0.0435117 -0.0516711 -0.0534018 0.000116 1.08983 -1.44897 -0.887991 2650 
786 1 -0.0469469 -0.0617753 -0.0499898 0.000423 5.73617 0.0682518 -5.38702 2650 
2310 1 -0.0477137 -0.05396 -0.0497856 4.2e-05 -1.45185 -1.59618 1.39143 2650 
2123 1 -0.0480557 -0.0494132 -0.0489245 0.000423 2.70885 0.793545 -2.66075 2650 
3139 1 -0.0506948 -0.0607759 -0.0466376 0.000116 4.81036 -0.235727 -5.22884 2650 
1012 1 -0.0510017 -0.0496222 -0.0458451 0.000423 -0.198608 -0.343768 0.220947 2650 
2186 1 -0.0522363 -0.060002 -0.0449043 0.000116 3.48558 -0.110632 -4.05471 2650 
1768 1 -0.0522849 -0.0578593 -0.0440169 0.000656 0.153341 0.455079 -0.182143 2650 
3547 1 -0.0539459 -0.0621561 -0.0423417 0.000423 3.50576 0.149038 -4.46705 2650 
2042 1 -0.0545803 -0.0492207 -0.0420239 0.000116 1.04885 0.357123 -1.36223 2650 
2314 1 -0.0543965 -0.0619693 -0.0413794 0.000656 3.42603 0.107183 -4.4964 2650 
4229 1 -0.0548754 -0.0614179 -0.0416351 0.000116 6.3995 1.64878 -7.90674 2650 
3673 1 -0.0553322 -0.0479647 -0.040513 0.000423 -1.11661 -1.39898 1.52506 2650 
1407 1 -0.0600343 -0.0475942 -0.0337772 0.000116 1.50219 1.07355 -2.66994 2650 
2476 1 -0.0608551 -0.0468237 -0.0322751 0.000116 0.11831 -0.825375 -0.223074 2650 
3260 1 -0.0615354 -0.0614465 -0.0309584 0.000116 -0.300191 -0.177474 0.596684 2650 
3013 1 -0.0613253 -0.0551361 -0.0306945 0.000423 -0.221756 -0.0105662 0.443052 2650 
2100 1 -0.0633856 -0.0481325 -0.0255629 0.000656 -0.503941 -0.312937 1.24957 2650 
908 1 -0.0640556 -0.0482945 -0.0244913 0.000423 -0.488942 -0.308134 1.2788 2650 
3549 1 -0.0651624 -0.0504438 -0.021373 0.000423 0.218492 0.100526 -0.666142 2650 
3812 1 -0.0657066 -0.0482566 -0.02068 0.000116 -0.368418 -0.27023 1.17057 2650 
4307 1 -0.0654478 -0.0618384 -0.0204363 0.000423 0.806616 -3.01503 -3.35496 2650 
1107 1 -0.0652381 -0.0598494 -0.0203744 0.000656 0.331896 0.950213 -0.915235 2650 
3613 1 -0.0672448 -0.0519445 -0.0152759 4.2e-05 0.137672 -0.962518 -0.606035 2650 
2051 1 -0.0630205 -0.0617335 -0.0133261 0.000116 3.08493 0.441265 -6.893 2650 
420 1 -0.0671032 -0.061128 -0.0127793 0.000116 0.519937 2.26305 -3.4697 2650 
1377 1 -0.0677511 -0.0511833 -0.0124422 0.000116 0.312116 -0.316481 -1.69955 2650 
947 1 -0.0684725 -0.0540102 -0.00751959 0.000116 0.190365 0.333745 -1.73344 2650 
2052 1 -0.0684948 -0.0470486 0.00731338 0.000116 -0.160393 0.557174 -1.50219 2650 
2177 1 -0.0683473 -0.0577775 0.00858371 0.000116 -1.30235 0.241971 -10.3699 2650 
2829 1 -0.0683718 -0.0494114 0.00838582 0.000116 -0.0501027 -0.651814 -0.408502 2650 
3930 1 -0.0676335 -0.0461845 0.0130663 0.000116 -0.837309 1.80009 -4.33407 2650 
19 1 -0.0661202 -0.0542585 0.0181954 0.000423 0.359307 -1.01655 1.30569 2650 
3058 1 -0.0662626 -0.0523872 0.0188227 0.000116 -0.497515 -0.702693 -1.75143 2650 
917 1 -0.0661132 -0.0507482 0.0182208 0.000423 -0.793311 0.576705 -2.87849 2650 
3583 1 -0.0652348 -0.0621618 0.0205697 0.000116 -2.29167 -4.85576 -8.17353 2650 
3464 1 -0.0585162 -0.0625986 0.0235806 0.000116 -5.26847 0.111789 -10.4049 2650 
577 1 -0.0638422 -0.059402 0.0250425 0.000423 0.392417 -0.235252 1.00082 2650 
159 1 -0.0639783 -0.0502601 0.0246927 0.000423 0.684522 -0.768167 1.77358 2650 
2460 1 -0.0625173 -0.0559115 0.0281876 0.000423 -0.350151 -0.815855 -0.7766 2650 
2247 1 -0.062435 -0.0494529 0.0283695 0.000423 -1.25389 0.640746 -2.75954 2650 
4023 1 -0.0613969 -0.0619047 0.0306826 0.000116 -0.894643 -0.706286 -2.71341 2650 
2234 1 -0.0616564 -0.0521255 0.030024 0.000423 -0.0492751 -0.209892 -0.10119 2650 
1227 1 -0.0612019 -0.05328 0.0309398 0.000423 -0.24087 -0.36057 -0.476465 2650 
1208 1 -0.0607925 -0.0561567 0.0325498 4.2e-05 -1.4436 -0.147553 -2.69618 2650 
3640 1 -0.0573 -0.0614955 0.037668 0.000423 -0.684854 0.281209 -0.768006 2650 
169 1 -0.0566839 -0.0564656 0.0391404 0.000116 -5.50395 0.754081 -7.97094 2650 
312 1 -0.0562747 -0.060522 0.0397263 0.000116 -0.239458 -0.0191656 -0.339206 2650 
2672 1 -0.0554689 -0.0620485 0.0403261 0.000423 -4.79366 0.025002 -6.59373 2650 
4068 1 -0.0551063 -0.0495805 0.0408196 0.000423 0.0306255 -0.36218 0.0413443 2650 
1207 1 -0.053742 -0.0623297 0.043209 4.2e-05 -7.55976 0.12928 -9.4026 2650 
800 1 -0.0520986 -0.0604171 0.0445948 0.000423 -3.17251 0.00329948 -3.70634 2650 
1955 1 -0.0489964 -0.0550969 0.0484188 0.000116 -1.19638 0.0927838 -1.21065 2650 
1841 1 -0.047865 -0.0611503 0.0495376 0.000116 -7.5074 0.741672 -7.25391 2650 
4098 1 -0.04399 -0.0523953 0.0526102 0.000423 0.656975 -0.0526453 0.54933 2650 
2130 1 -0.0404421 -0.0494947 0.055384 0.000423 1.70709 -0.542984 1.24654 2650 
1174 1 -0.038148 -0.0489606 0.0573564 0.000116 -4.61738 -1.09353 -3.07104 2650 
3747 1 -0.0349814 -0.0524083 0.0589852 0.000423 -0.846988 1.2122 -0.502309 2650 
3090 1 -0.0269818 -0.0523933 0.063047 0.000423 0.803014 0.069737 0.34366 2650 
78 1 -0.0280967 -0.047338 0.0628935 0.000116 -0.0495426 1.73167 -0.0221324 2650 
2574 1 -0.025373 -0.0451756 0.0637115 0.000423 1.3208 -0.315938 0.526008 2650 
1079 1 -0.0230171 -0.052091 0.0649249 0.000116 -5.27739 -0.943683 -1.87094 2650 
1752 1 -0.0182238 -0.0612613 0.0665064 4.2e-05 -0.284065 -0.0225843 -0.0778383 2650 
753 1 -0.0171591 -0.0463775 0.0667127 0.000116 -0.870426 -0.281295 -0.223881 2650 
2527 1 -0.0153579 -0.0567273 0.0672261 4.2e-05 1.46419 0.50713 0.334496 2650 
2269 1 -0.0094041 -0.0611898 0.0682392 0.000116 -0.660311 -0.625827 -0.090998 2650 
2937 1 -0.00557207 -0.0591117 0.0686584 0.000116 -3.21167 0.0536837 -0.260647 2650 
1869 1 -0.00594089 -0.0605713 0.0687016 4.2e-05 -6.56154 -1.32493 -0.567401 2650 
4026 1 -0.00259232 -0.0577763 0.0688353 0.000116 -3.08585 -0.0692567 -0.116212 2650 
2382 1 -0.00497121 -0.0354397 -0.0687045 0.000116 -0.462195 -1.09511 0.0334428 2650 
1202 1 -0.000457362 -0.0262514 -0.0689565 4.2e-05 5.73771 0.522048 -0.038056 2650 
1493 1 -0.00356912 -0.0189657 -0.0687916 0.000116 -1.74753 -0.266292 0.0906674 2650 
2714 1 -0.00142581 -0.0137771 -0.0688694 0.000116 -1.07967 0.525162 0.0223528 2650 
3920 1 -0.00476413 -0.00375842 -0.0687192 0.000116 -2.15944 -0.345811 0.149709 2650 
55 1 -0.00488665 -0.0343929 -0.0684037 0.000423 -1.51689 -0.392167 0.108364 2650 
1031 1 -0.00339573 -0.0340252 -0.0684939 0.000423 -1.4006 -0.426249 0.0694374 2650 
2001 1 -0.00264281 -0.0346012 -0.0685271 0.000423 -1.34509 -0.394478 0.0518744 2650 
3807 1 -0.00117091 -0.0218684 -0.0681052 0.000116 12.8385 -1.5088 -1.81122 2650 
3743 1 -0.00943727 -0.0202943 -0.0679256 0.000423 2.3654 0.0742294 -0.328642 2650 
437 1 -0.00857537 -0.017426 -0.0684227 4.2e-05 -1.52202 -0.339044 0.190754 2650 
4320 1 -0.00313527 -0.0179775 -0.0685063 0.000423 -1.76589 -0.191414 0.0808181 2650 
3945 1 -0.00814976 -0.0167335 -0.0684747 4.2e-05 -1.98036 -0.30956 0.2357 2650 
2327 1 -0.00448572 -0.016935 -0.0684312 0.000423 -1.64956 -0.248155 0.10813 2650 
1364 1 -0.00322943 -0.0163444 -0.068502 0.000423 -1.8708 -0.0462934 0.088196 2650 
3959 1 -0.00221294 -0.0162384 -0.0685423 0.000423 -1.83835 -0.0793932 0.0593525 2650 
4250 1 -0.00768197 -0.0138255 -0.0684544 0.000116 -2.20725 -0.190875 0.247698 2650 
3040 1 -0.00967286 -0.0131529 -0.0682016 0.000116 -1.34971 -0.253827 0.191425 2650 
1503 1 -0.00707126 -0.0128909 -0.0685202 0.000116 -1.46056 -0.445389 0.150729 2650 
4016 1 -0.00639966 -0.00789929 -0.0685862 0.000116 -1.8634 -0.407934 0.17387 2650 
3350 1 -0.0111185 -0.00594157 -0.0679809 0.000116 -1.53029 -0.449331 0.250285 2650 
1757 1 -0.00821165 -0.00524907 -0.0684673 4.2e-05 -3.67412 0.419809 0.440657 2650 
670 1 -0.00652254 -0.0045787 -0.0680342 0.000656 -1.53696 0.132651 0.147351 2650 
2578 1 -0.00298588 -0.00429268 -0.068513 0.000423 -1.58956 -0.161525 0.0692749 2650 
3656 1 -0.00111577 -0.00239242 -0.068569 0.000423 -1.24833 -0.131025 0.0203131 2650 
3227 1 -0.00462606 -0.000633145 -0.0684218 0.000423 -1.62377 -0.018821 0.109785 2650 
1781 1 -0.00156283 -0.000465195 -0.0685602 0.000423 -1.44207 -0.0195246 0.032872 2650 
1550 1 -0.0120565 -0.0134544 -0.0672743 0.000656 -0.519293 0.520384 0.0930643 2650 
2317 1 -0.00897478 -0.0139964 -0.0677544 0.000656 -1.44283 0.159932 0.191118 2650 
2196 1 -0.0132142 -0.0106475 -0.0676801 4.2e-05 -3.14453 -0.198924 0.613954 2650 
1433 1 -0.00866687 -0.00971273 -0.0677944 0.000656 -1.80441 -0.202408 0.230677 2650 
4048 1 -0.0122802 -0.00921003 -0.0678558 4.2e-05 -2.9533 -2.57917 0.534475 2650 
1172 1 -0.0145675 -0.00816757 -0.0673261 0.000116 -1.80534 -0.60631 0.390626 2650 
3527 1 -0.0118438 -0.00702784 -0.0675476 0.000423 -1.85611 0.199513 0.32545 2650 
2873 1 -0.012903 -0.00614123 -0.0673533 0.000423 -1.23428 -0.30972 0.236453 2650 
1046 1 -0.0147297 -0.00371139 -0.0672908 0.000116 -2.18092 0.734794 0.477396 2650 
2634 1 -0.0121836 -0.00388362 -0.0678732 4.2e-05 -2.46649 0.100648 0.442748 2650 
355 1 -0.0131691 -0.00274709 -0.0673017 0.000423 -1.51125 0.122273 0.295711 2650 
4074 1 -0.0141495 -0.000910944 -0.0671025 0.000423 -1.9013 -0.0243123 0.400917 2650 
1417 1 -0.0133513 -0.0409594 -0.0669847 0.000116 2.42776 0.279915 -2.64226 2650 
2813 1 -0.0172786 -0.0165687 -0.0666819 0.000116 -1.87739 -0.133105 0.48647 2650 
4217 1 -0.00340293 -0.0155602 -0.0663803 0.000423 -3.06892 -0.795766 -1.77198 2650 
2118 1 -0.0169078 -0.0130983 -0.0664611 0.000423 -1.58259 -0.213193 0.402613 2650 
725 1 -0.0161416 -0.0074368 -0.0669662 0.000116 -2.31205 -0.234125 0.557301 2650 
1183 1 -0.0158691 -0.00385531 -0.0670313 0.000116 -1.64027 -0.398358 0.388321 2650 
3519 1 -0.0135039 -0.0039141 -0.0669988 0.000656 -1.66289 0.0806662 0.335164 2650 
3409 1 -0.0155736 -0.00149288 -0.0665482 0.000656 -1.76506 -0.0678965 0.413058 2650 
3878 1 -0.0162297 -0.000422989 -0.0666299 0.000423 -1.75217 2.91165e-08 0.426794 2650 
691 1 -0.0182394 -0.0186763 -0.0661085 0.000423 -1.91388 -0.489355 0.5324 2650 
2248 1 -0.0185266 -0.0178834 -0.0660276 0.000423 -0.711282 0.171201 0.199351 2650 
2349 1 -0.0185561 -0.0155505 -0.0660198 0.000423 -1.19313 -0.331061 0.33535 2650 
2538 1 -0.0190185 -0.0141194 -0.0656468 0.000656 -1.76179 -0.0490511 0.510409 2650 
2663 1 -0.0177398 -0.0140339 -0.0662438 0.000423 -1.64166 -0.176789 0.439631 2650 
3764 1 -0.019401 -0.012108 -0.0657766 0.000423 -3.04135 -0.356429 0.897058 2650 
1325 1 -0.0189071 -0.010058 -0.0656789 0.000656 -1.91911 0.0642256 0.552457 2650 
2560 1 -0.0201585 -0.00917786 -0.0655484 0.000423 -2.05993 0.0279227 0.633501 2650 
4052 1 -0.0209982 -0.00179047 -0.0656832 4.2e-05 0.462868 1.46786 -0.147974 2650 
534 1 -0.0218714 -0.0166619 -0.0653197 0.000116 -2.29769 -1.57197 0.769349 2650 
528 1 -0.0235389 -0.0110386 -0.0647375 0.000116 -1.23164 0.37206 0.44783 2650 
91 1 -0.0214779 -0.00979192 -0.0654501 0.000116 -2.11251 -0.519859 0.693235 2650 
3319 1 -0.0202987 -0.00735212 -0.0655051 0.000423 -1.99468 0.141279 0.618112 2650 
2367 1 -0.0223021 -0.0062031 -0.0651739 0.000116 -0.503579 -0.0310327 0.172322 2650 
1278 1 -0.0231015 -0.00060211 -0.0648949 0.000116 0.407471 1.04751 -0.145053 2650 
856 1 -0.0228128 -0.000673183 -0.0649928 0.000116 -1.1936 -1.72535 -0.0199238 2650 
1958 1 -0.0235644 -0.0364462 -0.0647282 0.000116 4.02944 2.12674 -1.46692 2650 
213 1 -0.0224377 -0.0215262 -0.0639711 4.2e-05 -4.21131 -4.75327 1.03802 2650 
1734 1 -0.0236196 -0.0163142 -0.0647081 0.000116 -2.183 -0.247831 0.796832 2650 
827 1 -0.0261732 -0.0300233 -0.063718 0.000116 -0.302013 -0.816265 0.124057 2650 
4110 1 -0.0281847 -0.0420711 -0.0625185 0.000423 -0.39113 0.0664965 0.17633 2650 
1453 1 -0.0268848 -0.0152822 -0.0630885 0.000423 -1.17931 0.104424 0.502558 2650 
3619 1 -0.0303552 -0.0207788 -0.0619174 4.2e-05 -2.19744 -1.22859 1.0773 2650 
3582 1 -0.0298823 -0.0154178 -0.0620651 0.000116 1.07637 0.43881 -0.518238 2650 
2703 1 -0.0297074 -0.0024644 -0.062149 0.000116 -0.699386 0.625359 0.334308 2650 
1886 1 -0.0323441 -0.00501862 -0.0604715 0.000423 -1.16534 -0.217323 0.623301 2650 
13 1 -0.032837 -0.00256533 -0.0602053 0.000423 -1.12016 0.147042 0.610957 2650 
1020 1 -0.0329181 -0.000427843 -0.060161 0.000423 -1.55686 -0.0111599 0.851863 2650 
3393 1 -0.0352715 -0.0418633 -0.0592531 4.2e-05 -0.775763 -2.06808 0.394303 2650 
902 1 -0.0343399 -0.040571 -0.0593607 0.000423 0.741795 -0.0962826 -0.371607 2650 
3741 1 -0.0337304 -0.0401124 -0.0597096 0.000423 -0.164816 0.225593 0.0294263 2650 
2139 1 -0.0336573 -0.000483145 -0.0597506 0.000423 -1.54989 -0.0110214 0.873048 2650 
631 1 -0.0098909 -0.0413151 -0.0586098 0.000116 12.9066 0.136773 -1.64768 2650 
358 1 -0.0352837 -0.0213732 -0.0588048 0.000423 1.92561 0.80834 -1.15539 2650 
2091 1 -0.0356892 -0.03774 -0.0582879 0.000656 -0.519315 -0.326304 0.317973 2650 
2376 1 -0.0372725 -0.00433611 -0.0579291 0.000116 -0.565144 -1.09305 0.363623 2650 
3963 1 -0.0369855 -0.00101512 -0.0577497 0.000423 -0.601722 -0.262711 0.386353 2650 
491 1 -0.0364387 -0.000467508 -0.0580962 0.000423 -0.808737 0.037159 0.506005 2650 
2790 1 -0.0375994 -0.0333641 -0.0573519 0.000423 -1.21339 -0.00567382 0.795485 2650 
2959 1 -0.0362004 -0.0263434 -0.0575869 4.2e-05 -0.803813 -2.51375 -0.947548 2650 
1640 1 -0.0389808 -0.016009 -0.0568832 4.2e-05 1.32587 -0.627174 -0.90859 2650 
152 1 -0.0377706 -0.00875347 -0.0572393 0.000423 -1.66188 -0.166565 1.09663 2650 
1341 1 -0.0397967 -0.0393196 -0.0558495 0.000423 -1.21559 -0.200884 0.866193 2650 
1462 1 -0.0398406 -0.00752987 -0.0558182 0.000423 -1.01961 0.0380837 0.727753 2650 
3479 1 -0.0408987 -0.00311949 -0.0554285 0.000116 -0.481056 0.175023 0.354954 2650 
322 1 -0.015958 -0.00109698 -0.0558815 4.2e-05 9.89955 -0.513352 0.0382054 2650 
394 1 -0.0413809 -0.0250374 -0.0550694 0.000116 0.0111371 1.01004 -0.00836874 2650 
822 1 -0.0426614 -0.000576657 -0.0536931 0.000423 -0.85178 -0.0297376 0.676775 2650 
2765 1 -0.0440415 -0.0250841 -0.0525671 0.000423 -0.262266 0.656637 0.21973 2650 
3153 1 -0.0457794 -0.0288178 -0.0514711 0.000116 5.71351 1.08765 -5.0817 2650 
3375 1 -0.0456132 -0.0155765 -0.0516184 0.000116 0.91815 1.98754 -0.811334 2650 
4297 1 -0.0452389 -0.000679486 -0.0515401 0.000423 -1.09016 -0.0355538 0.956876 2650 
1239 1 -0.0463414 -0.0417631 -0.0505426 0.000423 -0.232465 -0.394237 0.114512 2650 
4150 1 -0.0466162 -0.00113354 -0.0507144 0.000116 -1.15255 -0.0217536 1.05941 2650 
4213 1 -0.0462853 -0.000716414 -0.0506026 0.000423 -1.10492 -0.0448007 1.01065 2650 
3904 1 -0.0470354 -0.000124419 -0.0503259 0.000116 -1.14822 -0.123342 1.07302 2650 
1008 1 -0.047551 -0.0367245 -0.049415 0.000423 -0.202119 -0.614645 0.194495 2650 
2717 1 -0.0487018 -0.0280305 -0.048715 0.000116 0.617938 1.09738 -0.61777 2650 
2208 1 -0.0483418 -0.00856349 -0.0483143 0.000656 -1.33293 -0.471953 1.33369 2650 
3748 1 -0.0496553 -0.0390104 -0.0473001 0.000423 -0.781896 -0.203107 0.820827 2650 
502 1 -0.0484814 -0.0205141 -0.0468055 0.000116 1.10289 -0.238865 -1.82958 2650 
1132 1 -0.0496947 -0.00783845 -0.0472587 0.000423 -1.38632 -0.281761 1.45778 2650 
1180 1 -0.0521164 -0.0235218 -0.0450434 0.000116 -0.846499 -0.0116635 0.979422 2650 
3233 1 -0.00137615 -0.00640455 -0.0454548 0.000423 -0.209441 -0.303593 -7.01493 2650 
3636 1 -0.0522595 -0.0210258 -0.0444061 0.000423 -0.950828 0.31435 1.11899 2650 
4006 1 -0.0533976 -0.00126876 -0.0435169 0.000116 -0.0332245 -0.181356 0.0407682 2650 
2112 1 -0.0532275 -0.0339026 -0.0432409 0.000423 -0.351448 -0.396249 0.432615 2650 
4342 1 -0.0538062 -0.0293157 -0.0430106 0.000116 2.306 -0.825413 -2.8848 2650 
2143 1 -0.0537412 -0.0432161 -0.0426008 0.000423 -0.529709 -0.25917 0.668231 2650 
1805 1 -0.0543243 -0.0430528 -0.0418548 0.000423 -0.565283 -0.0387856 0.733695 2650 
1404 1 -0.0543353 -0.0360136 -0.0423403 0.000116 0.177977 -0.6852 -0.228399 2650 
1047 1 -0.0544993 -0.00736119 -0.0421289 0.000116 -0.96211 -0.321724 1.24462 2650 
1612 1 -0.0534062 -0.000123237 -0.0423296 0.000116 -0.447512 -0.000541642 -1.82615 2650 
2018 1 -0.0544978 -0.0366673 -0.0416286 0.000423 -0.533173 -0.0498018 0.698 2650 
2340 1 -0.0550059 -0.0365385 -0.0409548 0.000423 -0.522968 0.115723 0.702392 2650 
2418 1 -0.0390048 -0.0405417 -0.0397543 4.2e-05 6.27757 0.488208 -1.35223 2650 
1968 1 -0.0562976 -0.00518353 -0.0396939 0.000116 -0.269318 -0.439394 0.381971 2650 
2169 1 -0.0564744 -0.0168388 -0.039442 0.000116 3.77071 1.9688 -5.39904 2650 
3431 1 -0.0566814 -0.0331234 -0.0386027 0.000423 -0.66024 0.0782022 0.96945 2650 
2875 1 -0.057096 -0.00161258 -0.0379868 0.000423 -1.11667 -0.0967697 1.6784 2650 
1224 1 -0.0575132 -0.0012268 -0.0373521 0.000423 -1.03084 -0.0067204 1.58725 2650 
343 1 -0.0580105 -0.00147547 -0.036575 0.000423 -1.01664 -0.0529513 1.61246 2650 
3692 1 -0.0590039 -0.0342498 -0.0355467 0.000116 0.455689 -0.830295 -0.756397 2650 
365 1 -0.0585388 -0.0231584 -0.0357233 0.000423 -0.528118 -0.086297 0.865412 2650 
2066 1 -0.0517479 -0.0216908 -0.0360305 0.000116 5.31568 -0.454322 -8.4037 2650 
419 1 -0.0593912 -0.0273647 -0.0348957 0.000116 1.50614 -0.648811 -2.56339 2650 
1945 1 -0.0590687 -0.0130157 -0.0354388 0.000116 -0.945503 0.215762 1.57595 2650 
3543 1 -0.0594064 -0.036556 -0.0342611 0.000423 -0.414389 -0.344722 0.718524 2650 
3881 1 -0.0606159 -0.0317747 -0.0320728 0.000423 -0.483102 -0.257085 0.913037 2650 
3882 1 -0.060834 -0.00951537 -0.0316572 0.000423 -1.46015 -0.298031 2.80589 2650 
3502 1 -0.0606262 -0.0436165 -0.0309928 4.2e-05 3.77829 -0.345487 -11.0033 2650 
1185 1 -0.0614045 -0.0340934 -0.0312171 0.000116 1.69322 1.21878 -3.3306 2650 
1938 1 -0.0612965 -0.0258614 -0.0314286 0.000116 0.035703 -0.314722 -0.0696331 2650 
440 1 -0.0617347 -0.00704221 -0.0307251 4.2e-05 -1.4266 -0.159585 2.8664 2650 
3330 1 -0.0619016 -0.00327032 -0.0295151 0.000423 -0.816529 -0.137917 1.7125 2650 
4373 1 -0.057237 -0.0204182 -0.0284334 4.2e-05 3.57498 -0.322726 0.828645 2650 
3196 1 -0.0622 -0.00639404 -0.028881 0.000423 -0.588227 0.109398 1.26684 2650 
3418 1 -0.0623948 -0.00345249 -0.0284577 0.000423 -0.518937 0.824642 1.13779 2650 
733 1 -0.0631017 -0.00329928 -0.0276261 0.000116 -0.623621 0.222528 1.42443 2650 
871 1 -0.0633496 -0.0183352 -0.0272403 4.2e-05 0.0445119 0.00389376 -0.103516 2650 
1712 1 -0.0637409 -0.0444946 -0.0261173 0.000116 0.00949488 0.0603513 -0.0231728 2650 
2846 1 -0.0641095 -0.018856 -0.0254005 4.2e-05 -0.870685 -0.481527 2.19756 2650 
3688 1 -0.0641361 -0.0326867 -0.0251313 0.000116 -0.377595 0.360438 0.963636 2650 
1915 1 -0.0639204 -0.0169567 -0.0248422 0.000423 -0.666492 -0.106834 1.71492 2650 
2848 1 -0.0642853 -0.0101208 -0.0249522 4.2e-05 0.217719 1.82512 -0.560918 2650 
3477 1 -0.0643721 -0.00335896 -0.0245206 0.000116 -1.14507 -0.359525 3.00608 2650 
4345 1 -0.0630691 -0.000168104 -0.0245654 0.000116 -0.29588 -0.0225929 -2.30796 2650 
4331 1 -0.0650993 -0.0428612 -0.0225191 0.000116 0.592758 -1.4473 -1.70889 2650 
2212 1 -0.0651921 -0.0407808 -0.0205229 0.000656 -0.220255 0.237655 0.699648 2650 
3426 1 -0.0658345 -0.0103984 -0.0192035 0.000423 -0.378317 0.0023603 1.29697 2650 
1922 1 -0.0659749 -0.00831418 -0.0187152 0.000423 -0.387287 0.0339093 1.36527 2650 
1083 1 -0.0665459 -0.00686518 -0.0177953 0.000116 -0.444095 -0.54317 1.66071 2650 
2131 1 -0.0664524 -0.0106491 -0.0169417 0.000423 -0.267993 0.341697 1.05118 2650 
1528 1 -0.0667963 -0.00653765 -0.0168308 0.000116 -0.987695 -1.36499 3.91987 2650 
606 1 -0.000183 0.00107969 -0.016592 0.000116 0 -0.011753 0 2650 
2726 1 -0.000635087 0.0092384 -0.0166632 0.000116 -0.00741369 0.00988612 -0.041436 2650 
2353 1 -0.0666787 -0.0154092 -0.016028 0.000423 -0.114199 0.187029 0.475084 2650 
2775 1 -0.0666719 -0.00487281 -0.0160564 0.000423 -0.370147 -0.179587 1.53698 2650 
999 1 -8.902e-05 0.00026604 -0.0158475 0.000656 -0.00841998 -0.0161411 -0.0218233 2650 
2013 1 -0.00302762 0.00313977 -0.0158393 0.000423 -0.00154235 0.00221798 0.00156406 2650 
2301 1 -0.00435996 0.00326886 -0.0159729 4.2e-05 -0.00116259 -0.0070103 0.00459775 2650 
4227 1 -0.000289136 0.00330315 -0.0164527 0.000116 0.00593372 -0.017543 0.0130313 2650 
2283 1 -0.00353162 0.00466708 -0.0163653 0.000116 -0.00010552 0.00956354 0.000789399 2650 
2520 1 -0.000150001 0.00490474 -0.0164839 4.2e-05 0.00318265 0.000380138 0.00682554 2650 
978 1 -0.00186289 0.00619848 -0.0164522 0.000116 0.0180122 -0.00353228 -0.00159853 2650 
3934 1 -0.001977 0.00584169 -0.016218 0.000116 0 -0.011753 0 2650 
3365 1 -0.00148149 0.00636449 -0.0162532 0.000116 0.015804 0.0241832 0.0212134 2650 
3150 1 -0.00241742 0.0100027 -0.0161994 0.000116 -0.0182263 -0.0087302 -0.0269448 2650 
938 1 -0.00154316 0.00993826 -0.0161068 0.000116 -0.00119823 0.000558801 -0.00633771 2650 
302 1 -0.00216579 0.0105164 -0.0165428 0.000116 -0.0347922 0.0241041 0.0152166 2650 
1483 1 -0.000496258 0.0106159 -0.0164129 0.000423 -0.000431738 0.0094693 0.00416488 2650 
3007 1 -0.00302571 0.0116484 -0.0160428 0.000423 -0.00754521 0.0118776 -0.00214285 2650 
3051 1 -0.00122483 0.0122459 -0.0162995 0.000116 0.163555 -0.227841 -0.0207843 2650 
371 1 -0.000626961 0.0120617 -0.016314 0.000423 -0.00963196 0.00951459 -0.00479058 2650 
188 1 -0.00333086 0.0137997 -0.0160812 0.000116 -0.0148612 0.0228045 0.00418427 2650 
2182 1 -0.00148033 0.0143986 -0.0159606 0.000116 0.00266263 0.0360122 0.0211071 2650 
2713 1 -0.000698787 0.0163061 -0.0158415 0.000116 0.00037122 0.035974 0.00535071 2650 
93 1 -0.0046125 0.0208569 -0.0160714 0.000116 0.0714693 0.0500535 -0.0191255 2650 
1717 1 -0.00412102 0.0316579 -0.0163232 0.000116 0.0090039 0.0753863 0.0163861 2650 
2264 1 -0.00102463 0.0526724 -0.0162368 0.000116 -0.0637592 0.11185 0.0253368 2650 
30 1 -0.00242156 -0.00258329 -0.0153473 0.000423 -0.0139928 -0.0214008 0.00726417 2650 
3011 1 -0.00024258 -0.00288888 -0.015276 0.000423 0.0180353 -0.0317081 -0.0392676 2650 
2399 1 -0.002418 0.00129369 -0.015541 0.000116 0 -0.011753 0 2650 
3637 1 -0.00551068 0.00439604 -0.0152352 0.000423 -0.00704251 0.0124689 0.006236 2650 
1679 1 -0.00434745 0.00520959 -0.0157229 0.000423 -0.00453172 0.0157125 0.00260684 2650 
889 1 -0.00100802 0.00479483 -0.0156491 0.000656 0.0221019 0.0158351 0.0220207 2650 
1827 1 -0.00419206 0.00657107 -0.0153362 0.000116 -0.00517626 -0.0457281 -0.00851659 2650 
3830 1 -0.006879 0.00739369 -0.015411 4.2e-05 0 -0.011753 0 2650 
2438 1 -0.00629041 0.00723626 -0.0151686 0.000423 -0.00472103 -0.000373669 -0.00125399 2650 
2313 1 -0.00323854 0.0078925 -0.0150392 0.000656 0.00750763 0.00230554 0.0199624 2650 
70 1 -0.00192322 0.0136394 -0.0154823 0.000116 0.0560864 0.0328811 0.00597028 2650 
2793 1 -0.000873838 0.0135334 -0.0151871 0.000423 0.00400332 0.0260717 0.000754087 2650 
3838 1 -0.00507249 0.0145257 -0.0154067 0.000656 0.0157867 0.0260395 0.00729433 2650 
2466 1 -0.00218757 0.0231119 -0.0153801 0.000423 0.0618857 0.0331724 -0.00268308 2650 
1195 1 -0.00245596 0.0358879 -0.0151061 0.000116 0.0557766 0.0782116 -0.0138054 2650 
1053 1 -0.007469 -0.00254831 -0.014946 0.000116 0 -0.011753 0 2650 
453 1 -0.0669707 -0.0021734 -0.0147605 0.000423 -0.404018 -0.206054 1.83309 2650 
857 1 -0.0080919 0.00360149 -0.0146541 0.000116 -0.0319262 0.0179271 0.0379105 2650 
3787 1 -0.00687206 0.00394641 -0.0147709 0.000116 -0.0024271 -0.00223267 -0.0195234 2650 
1611 1 -0.00101589 0.0039753 -0.0149158 0.000116 0.0444256 -0.019621 0.0278665 2650 
1192 1 -0.00717391 0.00658003 -0.0146698 0.000116 0.00510585 0.0133553 0.012363 2650 
581 1 -0.00559415 0.00812133 -0.014419 0.000423 0.00044719 0.0010883 0.00185987 2650 
3364 1 -0.00680286 0.00870777 -0.0149772 0.000116 -0.00179506 0.0163753 -0.0232219 2650 
2851 1 -0.00873715 0.0106508 -0.014402 4.2e-05 -0.209059 -0.12398 0.156693 2650 
2774 1 -0.00712893 0.0106917 -0.0144303 0.000423 -0.0403569 0.0250138 -0.0137733 2650 
86 1 -0.00524116 0.0110476 -0.0149256 0.000116 -0.0196067 0.0126222 0.000798653 2650 
2781 1 -0.00563803 0.0114158 -0.0147243 0.000423 0.00977627 0.0105103 0.0120467 2650 
2969 1 -0.00272258 0.0111212 -0.0148105 0.000656 -0.00667616 0.014076 0.00443217 2650 
2453 1 -0.0059364 0.0125311 -0.0142391 0.000423 0.00287214 0.0261989 -0.0126472 2650 
1228 1 -0.00275864 0.0141405 -0.0146641 0.000423 -0.0165339 0.0339414 0.00465399 2650 
2191 1 -0.00239305 0.013493 -0.0144942 4.2e-05 -0.00764734 0.00298638 -0.00836536 2650 
3644 1 -0.00139937 0.0147258 -0.0145885 0.000423 -0.0118967 0.0391079 0.0034562 2650 
2585 1 -0.00209367 0.0284157 -0.0149016 0.000116 -0.0221426 0.0759057 0.0070692 2650 
2147 1 -0.0675648 -0.0163816 -0.0134174 0.000116 -0.116579 -0.631886 0.587048 2650 
4244 1 -0.00381542 -0.00328923 -0.0140258 0.000116 -0.0436806 -0.00994679 0.0125723 2650 
736 1 -0.00896718 -0.00194752 -0.0140127 0.000116 -0.0307431 -0.0170391 0.0144389 2650 
509 1 -0.00789345 -0.000905728 -0.0140866 0.000116 -0.00480979 -0.0076817 0.0108723 2650 
1991 1 -0.00865318 0.000150264 -0.0137042 0.000656 -0.0192457 -0.00223252 0.00858771 2650 
2666 1 -0.00761974 0.0033099 -0.0141306 0.000423 0.0107963 0.0809594 0.0204513 2650 
763 1 -0.00720667 0.00326006 -0.0137729 4.2e-05 0.0429385 0.0136209 0.0378616 2650 
220 1 -0.00328337 0.00376322 -0.0136525 4.2e-05 0.00197382 0.00663681 0.00671825 2650 
1288 1 -0.002467 0.00502269 -0.014044 0.000116 0 -0.011753 0 2650 
3515 1 -0.0085812 0.00631165 -0.0135484 0.000656 -0.00454215 -0.00749919 0.00616721 2650 
1618 1 -0.00941941 0.00763817 -0.0138814 0.000116 0.0059414 0.00192455 -0.00369393 2650 
1769 1 -0.00866253 0.0078081 -0.0136018 0.000656 -0.00763615 -0.00751468 0.00847974 2650 
2483 1 -0.00560354 0.00737405 -0.013591 0.000116 0.00771374 -0.0189039 -0.0218467 2650 
233 1 -0.00316556 0.00866481 -0.014162 0.000423 0.0114684 -0.00558491 0.0116559 2650 
4190 1 -0.0093456 0.00946617 -0.0135877 0.000423 -0.00626579 0.00565015 0.00416389 2650 
842 1 -0.00794777 0.00886062 -0.0140401 0.000116 -0.0132472 -0.000581938 -0.0143857 2650 
1409 1 -0.000533114 0.0087826 -0.013917 0.000116 -0.00338114 -0.0124825 -0.00177889 2650 
793 1 -7.83894e-05 0.0094398 -0.0139357 0.000423 -0.00384688 0.00642406 -0.0108379 2650 
438 1 -0.0087783 0.0111005 -0.0139018 4.2e-05 0.00854646 0.00400873 0.0554682 2650 
1802 1 -0.00320019 0.0123902 -0.0141494 0.000423 0.00500259 -0.000364755 -0.0111755 2650 
2345 1 -0.00181809 0.0138371 -0.0140177 0.000423 -0.0175833 0.0131789 -0.0282092 2650 
128 1 -0.000902981 0.0142753 -0.0140584 0.000423 -0.00458662 0.0273274 -0.00640456 2650 
3145 1 -0.00898247 0.0151224 -0.0140233 0.000116 0.00413084 0.0258652 0.0123186 2650 
3471 1 -0.00737815 0.0151492 -0.0139714 0.000116 0.00654915 0.0415659 -0.0136084 2650 
1839 1 -0.00772877 0.0165394 -0.0134427 0.000116 -0.0676852 0.0211351 0.0188737 2650 
2924 1 -0.0096981 0.017148 -0.0137998 0.000116 -0.0447463 0.0323973 0.0311383 2650 
3165 1 -0.00987691 0.0218473 -0.0136058 0.000116 -0.191147 0.128307 0.140346 2650 
4234 1 -0.00474753 0.0345672 -0.0139019 0.000116 0.00512064 0.0508026 0.0366661 2650 
3211 1 -0.00669341 0.054898 -0.0140747 0.000423 0.121461 0.0923792 -0.0696515 2650 
623 1 -0.00874266 -9.80482e-05 -0.0126934 0.000116 -0.00176155 0.0164163 -0.0155171 2650 
1763 1 -0.00383006 -0.000383661 -0.013372 0.000656 0.0110536 0.0386342 0.0470271 2650 
2609 1 -0.0085355 0.00131888 -0.0134028 0.000116 -0.00705034 0.0126459 0.00789545 2650 
2922 1 -0.00822332 0.00131113 -0.0132375 0.000116 -0.00925852 -0.000802711 0.00675368 2650 
2512 1 -0.00621781 0.000954461 -0.0132647 0.000116 0.018779 -0.0192413 0.00230208 2650 
3917 1 -0.003984 0.00155069 -0.012703 0.000116 0 -0.011753 0 2650 
3316 1 -0.0101417 0.00174568 -0.0130043 0.000423 -0.00552961 -0.00411585 -0.00161779 2650 
2059 1 -0.003583 0.00175969 -0.012756 0.000116 0 -0.011753 0 2650 
2913 1 -0.00962921 0.00302478 -0.0133726 0.000116 -0.0269546 0.0385212 -0.00427738 2650 
4374 1 -0.0095515 0.00306239 -0.0130254 4.2e-05 -0.00342399 0.0134868 -0.018776 2650 
2473 1 -0.00949992 0.00252968 -0.0131106 0.000423 -0.0437212 0.0367029 0.0424505 2650 
3289 1 -0.00501187 0.00354055 -0.0127749 4.2e-05 0.00210041 -0.0118729 -0.0396069 2650 
1427 1 -0.002948 0.00409069 -0.013376 4.2e-05 0 -0.011753 0 2650 
3362 1 -0.00259875 0.00463398 -0.0130434 0.000116 0.000350619 -0.00253681 -0.00404217 2650 
3071 1 -0.0102637 0.00510749 -0.0128046 4.2e-05 -0.0100464 -0.00669175 -0.0253889 2650 
2322 1 -0.00933742 0.00492344 -0.0131828 0.000656 -0.00463581 -0.0140818 0.00324309 2650 
4179 1 -0.00816622 0.00481226 -0.0128504 0.000423 -0.000889884 -0.0208242 0.00186897 2650 
1388 1 -0.00789522 0.00559267 -0.01296 0.000116 -0.039288 0.0021603 0.0169103 2650 
1250 1 -0.00957202 0.00708764 -0.0132299 0.000423 -0.00836241 -0.0100793 -0.00125625 2650 
4257 1 -0.00847717 0.00704308 -0.0126423 0.000116 -0.00578911 -0.00907208 0.00958653 2650 