ITEM: TIMESTEP
2591520
ITEM: NUMBER OF ATOMS
4380
ITEM: BOX BOUNDS ff ff ff
-0.15 0.15
-0.15 0.06
-0.15 0.15
ITEM: ATOMS id type x y z radius vx vy vz density 
1740 1 -0.00245495 -0.0522479 -0.0688404 0.000116 -1.2267 -0.57692 0.0437462 2650 
3252 1 -0.0324376 -0.0540271 -0.0607686 0.000116 -1.02967 -0.541808 0.549627 2650 
1845 1 -0.0384189 -0.0612872 -0.0571753 0.000116 -0.0922213 -0.175537 0.061968 2650 
1135 1 -0.0521001 -0.0571933 -0.044593 0.000423 -2.08391 -0.7427 2.43473 2650 
3810 1 -0.0545937 -0.0540309 -0.0420066 0.000116 3.36671 0.695523 -4.37554 2650 
3850 1 -0.0544883 -0.0462756 -0.0416411 0.000423 -1.67723 -0.702677 2.19469 2650 
2679 1 -0.0556012 -0.0569065 -0.0401432 0.000423 -2.92688 0.682524 4.05395 2650 
1943 1 -0.0612637 -0.0465708 -0.0314926 0.000116 -0.562337 -0.886969 1.09393 2650 
3089 1 -0.0631758 -0.0526919 -0.0266794 0.000423 -2.44921 1.29099 5.79965 2650 
741 1 -0.0628327 -0.0620745 -0.0248822 0.000116 -0.11124 -0.137774 -2.08058 2650 
843 1 -0.0684203 -0.0499218 -0.00798022 0.000116 0.271264 -0.776057 -2.32575 2650 
2855 1 -0.0686483 -0.0593553 -0.00652867 4.2e-05 2.73122 -1.51928 -28.7185 2650 
1568 1 -0.0677622 -0.0553947 0.0105468 0.000423 0.382704 -0.441861 2.45883 2650 
3812 1 -0.0631286 -0.0607285 0.0275645 0.000116 -2.82394 0.0974438 -6.46744 2650 
3313 1 -0.060896 -0.0593255 0.0315378 0.000423 1.35681 -0.182995 2.61984 2650 
1239 1 -0.0545929 -0.0588798 0.0415039 0.000423 1.93965 -0.592452 2.55136 2650 
3444 1 -0.0513545 -0.0504587 0.0454496 0.000423 2.23718 0.359055 2.52784 2650 
399 1 -0.042743 -0.0514386 0.0540175 0.000116 -2.37732 -2.48907 -1.92748 2650 
1270 1 -0.0375652 -0.0597689 0.0577397 0.000116 1.67569 -0.0205946 1.0902 2650 
1856 1 -0.0347776 -0.0467466 0.0594604 0.000116 -1.08369 0.263307 -0.633836 2650 
2317 1 -0.0154791 -0.0460546 0.0665703 0.000656 2.57677 -0.0877847 0.599155 2650 
2835 1 -0.00720137 -0.057056 0.0685067 0.000116 12.1957 -0.679748 1.282 2650 
4133 1 -0.00699193 -0.0498262 0.0685284 0.000116 1.20729 -0.440935 0.12318 2650 
3683 1 -0.00198474 -0.0351072 -0.0688555 0.000116 -2.30134 -0.703787 0.0663354 2650 
2291 1 -0.00124414 -0.00518069 -0.0688506 0.000116 -3.20036 -0.110622 1.11286 2650 
483 1 -0.00840693 -0.0412354 -0.0680608 0.000423 -2.49444 -0.316263 0.308048 2650 
3724 1 -0.0110846 -0.0198148 -0.0680613 4.2e-05 -3.06249 -0.416686 0.498765 2650 
4087 1 -0.00593795 -0.0167092 -0.0683205 0.000423 -3.2291 -0.226271 0.280651 2650 
3580 1 -0.00966707 -0.0119839 -0.0682024 0.000116 -3.12241 -0.212045 0.442572 2650 
2895 1 -0.00375193 -0.00990448 -0.0684754 0.000423 -3.19907 -0.163334 0.175285 2650 
3073 1 -0.00232316 -0.0278634 -0.0676781 4.2e-05 4.91566 -0.835515 1.01637 2650 
3018 1 -0.0105954 -0.0222352 -0.0677546 0.000423 -2.9735 -0.580499 0.464992 2650 
2102 1 -0.0147319 -0.00154985 -0.0667396 0.000656 -2.73783 0.26261 0.604341 2650 
893 1 -0.0188081 -0.0357304 -0.0659485 0.000423 -2.88309 -0.540432 0.822238 2650 
4026 1 -0.0191584 -0.0330646 -0.0661663 0.000116 -0.892536 -0.765009 0.258433 2650 
1905 1 -0.0182994 -0.0262713 -0.0660915 0.000423 -2.6806 -0.268868 0.742202 2650 
3038 1 -0.0196454 -0.0203519 -0.0659969 0.000116 -1.10752 0.349812 -1.67473 2650 
2928 1 -0.020689 -0.0164154 -0.0657038 0.000116 -3.05619 -0.267621 0.96234 2650 
2966 1 -0.00139734 -0.00971014 -0.0654649 0.000656 -2.94348 -0.389543 0.945795 2650 
1841 1 -0.0233005 -0.00873927 -0.0648237 0.000116 -3.01415 -0.181645 1.08342 2650 
1914 1 -0.023687 -0.0230795 -0.0643574 0.000423 -2.54549 -0.346549 0.936879 2650 
1132 1 -0.0254092 -0.0421006 -0.0636938 0.000423 -2.78084 -1.06783 1.08011 2650 
1060 1 -0.0260916 -0.0310949 -0.0637515 0.000116 -1.1893 -0.648346 0.486744 2650 
3470 1 -0.0278473 -0.00633179 -0.0630044 0.000116 -2.93014 -0.145458 1.29509 2650 
1207 1 -0.0303112 -0.0137038 -0.061939 4.2e-05 -2.86943 -0.239806 1.40422 2650 
2039 1 -0.0321847 -0.0395914 -0.0609029 0.000116 -2.17564 0.150363 1.14974 2650 
427 1 -0.0314056 -0.0235118 -0.0613083 0.000116 -0.951076 -0.360611 0.487195 2650 
2732 1 -0.0139572 -0.00741979 -0.0610229 0.000116 -2.13839 -0.438599 -9.3403 2650 
1214 1 -0.0319393 -0.0328235 -0.0604243 0.000656 -2.63979 -0.240729 1.39535 2650 
601 1 -0.0327846 -0.0159367 -0.0602339 0.000423 -2.81605 -0.237581 1.53274 2650 
1537 1 -0.0338674 -0.0142943 -0.0600684 4.2e-05 -2.80533 -0.241084 1.58168 2650 
2083 1 -0.0141953 -0.0215513 -0.0587374 4.2e-05 4.29526 -0.277989 -6.60691 2650 
2820 1 -0.0374531 -0.00417763 -0.0569064 0.000116 -0.820575 -0.0770633 4.07794 2650 
3265 1 -0.0348079 -0.00426986 -0.056816 0.000116 -1.59553 -0.0825479 3.14529 2650 
1042 1 -0.0390407 -0.0219823 -0.0563806 0.000423 -2.43653 -0.64503 1.68717 2650 
3229 1 -0.0410287 -0.00725026 -0.0549533 0.000423 -2.648 -0.209801 1.74916 2650 
1320 1 -0.0372596 -0.00451108 -0.0549352 4.2e-05 -1.70666 -0.101759 2.85548 2650 
983 1 -0.042617 -0.0404509 -0.0542126 4.2e-05 3.72124 -0.0964905 -2.9253 2650 
814 1 -0.0417297 -0.00892939 -0.0544204 0.000423 -2.55229 -0.196433 1.95711 2650 
827 1 -0.0427371 -0.00533241 -0.0540237 0.000116 -2.47335 -0.123109 1.95662 2650 
2256 1 -0.00640091 -0.012206 -0.0530581 0.000116 -0.956162 -0.793663 -7.91153 2650 
578 1 -0.0437597 -0.00891643 -0.0528019 0.000423 -2.46339 -0.189669 2.04154 2650 
3834 1 -0.0221768 -0.0207045 -0.0520057 4.2e-05 6.9459 -0.298518 1.06051 2650 
2353 1 -0.0454024 -0.0115463 -0.0513963 0.000423 -2.54568 0.00426644 2.24879 2650 
4068 1 -0.0467409 -0.0134519 -0.0501821 0.000423 -2.25435 -0.353234 2.09976 2650 
2601 1 -0.0469511 -0.00973487 -0.0504045 0.000116 -2.34652 -0.200349 2.18575 2650 
4074 1 -0.0472945 -0.00751436 -0.0496607 0.000423 -2.32318 -0.179241 2.21249 2650 
1481 1 -0.0488304 -0.0194514 -0.0481512 0.000423 -1.33369 0.206745 1.3525 2650 
4210 1 -0.0491297 -0.0170309 -0.0478459 0.000423 -2.17733 -0.372669 2.23575 2650 
397 1 -0.0498915 -0.0129589 -0.0474959 0.000116 -2.19821 -0.300326 2.30908 2650 
2165 1 -0.0177903 -0.00645415 -0.0454181 0.000116 -2.75909 -0.233055 -7.09284 2650 
432 1 -0.0529271 -0.0129747 -0.0442033 4.2e-05 -2.05877 -0.268734 2.46508 2650 
3015 1 -0.0321893 -0.00973686 -0.0446035 0.000423 -4.85159 -0.549107 -6.66364 2650 
747 1 -0.00415422 -0.0119834 -0.0434718 0.000116 -0.598879 -0.933396 -6.31044 2650 
4139 1 -0.0546005 -0.0156038 -0.0419977 0.000116 -1.94934 -0.318992 2.5343 2650 
2343 1 -0.054695 -0.0128091 -0.0413692 0.000423 -1.93407 -0.229941 2.55708 2650 
1877 1 -0.0541726 -0.00715517 -0.0416719 0.000656 -1.96182 -0.165775 2.55033 2650 
1081 1 -0.0556771 -0.0114267 -0.0405596 0.000116 -1.88699 -0.221991 2.59032 2650 
4095 1 -0.0559377 -0.0312846 -0.0396727 0.000423 -1.64187 -0.369897 2.315 2650 
3671 1 -0.00208828 -0.00539046 -0.0400905 0.000423 -0.341116 -0.193168 -6.13704 2650 
121 1 -0.0567694 -0.00955519 -0.0380585 0.000656 -1.72162 -0.255081 2.56802 2650 
3261 1 -0.0572869 -0.0053789 -0.0382366 0.000116 -1.54828 -0.127717 2.82678 2650 
3622 1 -0.0573769 -0.0201176 -0.0371068 0.000656 -1.67183 -0.580102 2.51529 2650 
1544 1 -0.0575445 -0.0278792 -0.0368759 0.000656 -1.62133 -0.476487 2.53007 2650 
1878 1 -0.0578584 -0.025646 -0.0363815 0.000656 -1.43802 -0.35179 2.28692 2650 
2800 1 -0.0600775 -0.0282996 -0.0330703 0.000423 -1.41811 -0.471672 2.57624 2650 
3479 1 -0.0608327 -0.0144462 -0.0323173 0.000116 -1.5087 -0.326765 2.83992 2650 
2705 1 -0.0032188 -0.008166 -0.0309239 0.000116 -0.436038 -0.836695 -4.20452 2650 
1716 1 -0.0606131 -0.00419517 -0.0310301 0.000116 1.28034 -0.0779237 3.93605 2650 
2685 1 -0.0615145 -0.0179815 -0.0303138 0.000423 -1.43925 -0.637612 2.9206 2650 
416 1 -0.0634083 -0.0127308 -0.0269149 0.000116 -1.25136 -0.190923 2.94805 2650 
3381 1 -0.0638961 -0.00899385 -0.0257355 0.000116 -1.19667 -0.184505 2.97109 2650 
2238 1 -0.0643343 -0.0247086 -0.0237497 0.000423 -0.994173 -0.448921 2.69306 2650 
1555 1 -0.0641231 -0.02317 -0.0243142 0.000423 -0.90964 -0.209021 2.39896 2650 
4020 1 -0.0654612 -0.0146302 -0.0214443 0.000116 -0.996948 -0.249434 3.0433 2650 
167 1 -0.00725455 -0.00529666 -0.0220235 0.000116 -0.902896 -0.30234 -2.7602 2650 
2576 1 -0.0656098 -0.0217768 -0.0199577 0.000423 -0.810716 -0.0921758 2.66519 2650 
661 1 -0.0653092 -0.0150256 -0.0201474 0.000656 -0.965489 -0.577635 3.12967 2650 
2641 1 -0.0656913 -0.0169297 -0.0188643 0.000656 -0.88424 -0.263119 3.0792 2650 
428 1 -0.0127773 -0.00486018 -0.017867 0.000116 -1.32709 -0.29026 -1.80416 2650 
3156 1 -0.066726 -0.0328418 -0.0171075 0.000116 -0.27607 -0.520121 1.07678 2650 
606 1 -0.000183 0.00439734 -0.016592 0.000116 0 -0.011753 0 2650 
2713 1 -0.000763 0.0113683 -0.016767 0.000116 0 -0.011753 0 2650 
4345 1 -0.0669616 -0.0267713 -0.0161608 0.000116 -0.553257 0.347774 2.29239 2650 
122 1 -0.066395 -0.0230807 -0.0162144 0.000656 -0.682897 -0.0977052 2.79634 2650 
2127 1 -0.00126845 -0.00220594 -0.0158783 0.000423 -0.0666802 -0.0265353 -0.0830197 2650 
856 1 -0.000855437 -0.00179121 -0.0158622 0.000116 0.084886 -0.0869126 -0.0858312 2650 
93 1 -0.00492397 -0.00112193 -0.0160074 0.000116 -0.0674932 -0.0307806 0.026204 2650 
4116 1 -0.004072 -0.00125966 -0.016193 0.000116 0 -0.011753 0 2650 
1808 1 -0.00285582 -0.00127083 -0.0159594 0.000423 -0.0435639 -0.0103892 0.0208535 2650 
2875 1 -0.000312381 -0.00112134 -0.0162456 0.000423 -0.0847414 -0.037633 0.0264803 2650 
2965 1 -0.000363227 -0.0013752 -0.0158443 4.2e-05 -0.0448143 -0.0612344 0.0351436 2650 
1991 1 -0.00286041 0.000757422 -0.01597 0.000656 -0.0303568 -0.00285554 0.00655759 2650 
150 1 -0.00179534 0.000509555 -0.0162897 0.000423 -0.00905839 0.0051051 -0.00106565 2650 
736 1 -0.003429 0.00232234 -0.016474 0.000116 0 -0.011753 0 2650 
676 1 -0.000180517 0.00177373 -0.0164203 0.000423 -0.0443712 0.00824282 -0.0371095 2650 
1093 1 -0.00418431 0.00302287 -0.016085 4.2e-05 -0.0377884 0.0174852 0.109535 2650 
2013 1 -0.00302801 0.00365833 -0.0161767 0.000423 0.00266818 -0.00871737 -0.00337826 2650 
1698 1 -0.000153315 0.00335547 -0.0158646 0.000423 -0.0123561 0.00250859 -0.0148315 2650 
2301 1 -0.004222 0.00617034 -0.016305 4.2e-05 0 -0.011753 0 2650 
3546 1 -0.00219718 0.00612755 -0.01621 0.000423 0.0353679 0.0277321 0.00286657 2650 
3789 1 -0.0018942 0.00568324 -0.0164624 0.000116 0.030547 0.0102001 0.00865191 2650 
188 1 -0.00068 0.00593934 -0.016516 0.000116 0 -0.011753 0 2650 
3616 1 -0.000938 0.00673434 -0.016074 4.2e-05 0 -0.011753 0 2650 
508 1 -0.00177995 0.00719996 -0.0162137 0.000116 -0.0867988 0.00663082 -0.017321 2650 
3934 1 -0.001977 0.00915934 -0.016218 0.000116 0 -0.011753 0 2650 
675 1 -0.00350844 0.0129276 -0.0160302 0.000423 -0.0185613 0.11548 0.0749126 2650 
3859 1 -0.000872243 0.0222437 -0.015978 0.000423 0.0625424 0.161989 -0.116581 2650 
1548 1 -0.00135968 0.0296746 -0.0161899 0.000656 0.0728943 0.135789 0.130375 2650 
1347 1 -0.00223436 0.0311908 -0.0160418 0.000423 -0.162332 0.209952 0.0301271 2650 
2670 1 -0.066893 -0.0292322 -0.0151091 0.000423 -0.615242 -0.299121 2.72388 2650 
330 1 -0.001698 -0.00158466 -0.015557 4.2e-05 0 -0.011753 0 2650 
3733 1 -0.00400028 -0.000154417 -0.0157001 0.000656 -0.0212233 0.00596614 0.0148962 2650 
541 1 -0.00307101 -0.000473066 -0.0157216 4.2e-05 -0.0428204 0.0143713 0.0426846 2650 
2313 1 -0.00485206 0.000935484 -0.015347 0.000656 -0.0073604 0.0572321 -0.0107098 2650 
3351 1 -0.00184933 0.00110766 -0.0151379 0.000116 0.0916923 -0.0624662 0.0949948 2650 
1618 1 -0.00736069 0.00216488 -0.0151355 0.000116 0.0666428 -0.0229251 -0.215351 2650 
1679 1 -0.00360979 0.00334998 -0.015566 0.000423 -0.000267589 -0.00703629 -0.00433961 2650 
3322 1 -0.00462769 0.00470891 -0.0151625 0.000423 0.00353739 -0.017928 0.0139954 2650 
2399 1 -0.002418 0.00461134 -0.015541 0.000116 0 -0.011753 0 2650 
3121 1 -0.00619989 0.0050531 -0.0152166 0.000423 0.0277737 -0.000599869 -0.0089826 2650 
1219 1 -0.00277083 0.00540956 -0.015476 0.000656 0.0264793 0.011011 -0.00651516 2650 
3380 1 -0.00199719 0.00498393 -0.0152296 0.000116 -0.00549837 0.0130283 0.0301104 2650 
4296 1 -0.00158228 0.00509608 -0.015687 0.000423 0.0010665 -0.0125591 -0.00338285 2650 
978 1 -0.005372 0.00785734 -0.015286 0.000116 0 -0.011753 0 2650 
2969 1 -0.00138107 0.00718151 -0.0153529 0.000656 -1.31448e-05 -0.0117221 0.000199617 2650 
1986 1 -0.00373516 0.00822161 -0.0150381 0.000656 0.00762539 0.0149956 0.0116892 2650 
3515 1 -0.00610577 0.0089371 -0.0150638 0.000656 -0.0260876 -0.014329 -0.0052467 2650 
3177 1 -0.001068 0.0102153 -0.015412 4.2e-05 0 -0.011753 0 2650 
3830 1 -0.006879 0.0107113 -0.015411 4.2e-05 0 -0.011753 0 2650 
86 1 -0.002064 0.0104153 -0.015055 0.000116 0 -0.011753 0 2650 
938 1 -0.000869 0.0116213 -0.015416 0.000116 0 -0.011753 0 2650 
2701 1 -0.00176625 0.0204145 -0.01542 0.000116 0.0331549 0.247236 -0.00676049 2650 
3502 1 -0.001236 -0.00247966 -0.014816 4.2e-05 0 -0.011753 0 2650 
2690 1 -0.00158825 -0.00188752 -0.0144427 0.000423 -0.0280618 0.00668887 -0.0382734 2650 
3200 1 -0.00779475 -0.00116486 -0.0142257 0.000423 0.0205513 0.040167 0.0362369 2650 
3196 1 -0.00599898 -0.000854154 -0.0149531 0.000423 -0.0194273 -0.0238555 -0.0431032 2650 
3441 1 -0.0034411 -0.000860539 -0.0144087 0.000423 0.0511961 0.0224295 0.00157087 2650 
3904 1 -0.00248946 -0.00152396 -0.0148642 0.000116 -0.0744835 -0.0382529 -0.0809148 2650 
1640 1 -0.001358 -0.00114666 -0.014495 4.2e-05 0 -0.011753 0 2650 
2413 1 -0.003433 -0.00046466 -0.014868 4.2e-05 0 -0.011753 0 2650 
1053 1 -0.007469 0.00076934 -0.014946 0.000116 0 -0.011753 0 2650 
2645 1 -0.00097963 3.03798e-05 -0.0148478 0.000656 -0.0760751 -0.0478553 -0.0891054 2650 
2332 1 -0.003268 0.00106034 -0.014853 0.000423 0 -0.011753 0 2650 
3239 1 -0.002155 0.00097934 -0.014442 0.000116 0 -0.011753 0 2650 
248 1 -0.00193717 0.00185043 -0.0146621 0.000423 -0.109327 -0.00677792 0.0888521 2650 
220 1 -0.003649 0.00367434 -0.014897 4.2e-05 0 -0.011753 0 2650 
3645 1 -0.00234915 0.0037146 -0.0143332 0.000423 -0.0160854 0.00255483 0.0270818 2650 
104 1 -0.00228052 0.00432246 -0.0143804 4.2e-05 -0.00674979 0.0150481 0.0116551 2650 
4165 1 -0.00543711 0.00563836 -0.0144447 0.000656 0.00388545 0.0106393 0.0146387 2650 
234 1 -0.00426969 0.0056433 -0.0146253 0.000423 0.00472056 -0.0217141 -0.0831894 2650 
3147 1 -0.00216504 0.00568976 -0.0143065 0.000116 -0.00706837 0.0221131 0.0132401 2650 
2438 1 -0.005612 0.00697234 -0.014612 0.000423 0 -0.011753 0 2650 
3365 1 -0.002315 0.00703734 -0.014552 0.000116 0 -0.011753 0 2650 
3564 1 -0.000147 0.00640034 -0.014738 0.000423 0 -0.011753 0 2650 
4190 1 -0.00732318 0.00873632 -0.0145985 0.000423 -0.000739016 -0.00663112 -0.00697295 2650 
958 1 -0.00504164 0.00887269 -0.0147583 0.000116 0.0401715 0.0303898 0.081686 2650 
2596 1 -0.00408826 0.00947775 -0.0148341 0.000116 -0.0696583 -0.0414928 -0.0233005 2650 
1228 1 -0.00130399 0.0104922 -0.014947 0.000423 -0.00123313 -0.0118667 -0.000623591 2650 
371 1 -0.000534713 0.0106187 -0.0146168 0.000423 0.000724313 -0.00601752 -0.0061741 2650 
3669 1 -0.000493212 0.0114497 -0.0142486 0.000423 0.00220454 -0.00743356 -0.00383523 2650 
1979 1 -0.00155706 0.0124621 -0.0148014 4.2e-05 -0.0899116 0.138255 -0.11345 2650 
3632 1 -0.00727187 0.0127986 -0.0148194 0.000423 -0.0240755 -0.00064867 0.0133566 2650 
1357 1 -0.00761086 0.0220853 -0.0142488 0.000423 -0.0662446 0.165624 0.033916 2650 
1636 1 -0.00557556 0.0465516 -0.0149008 0.000116 0.319403 -0.362976 -0.00255225 2650 
2545 1 -0.067168 -0.0139286 -0.0138352 0.000423 -0.645995 -0.484621 3.13622 2650 
4056 1 -0.00213617 -0.00277641 -0.0140805 0.000656 0.0383434 -0.0540813 -0.0090439 2650 
1393 1 -0.00959919 -0.00212869 -0.0135232 0.000116 -0.0601138 -0.0109855 0.00849791 2650 
3303 1 -0.00882417 -0.00200551 -0.0135775 0.000656 -0.0523955 0.0509296 0.0372036 2650 
3999 1 -0.00247564 -0.00137226 -0.0140511 0.000423 0.0971825 -0.00741603 -0.0258727 2650 
2783 1 -0.0025966 -0.000257203 -0.0139839 0.000423 0.0359054 0.0369528 -0.00810704 2650 
4126 1 -0.0020169 -0.00075198 -0.0136872 0.000116 -0.0261531 0.0084042 0.00402279 2650 
3778 1 -0.00389335 0.000422326 -0.0138163 0.000423 -0.00179903 -0.0118226 -0.00159569 2650 
2827 1 -0.00346331 0.000463595 -0.0134892 0.000116 0.02715 0.018299 -0.0168884 2650 
2219 1 -0.00874403 0.00210572 -0.0137322 0.000423 -0.00478086 0.0422522 -0.0973669 2650 
1125 1 -0.00163289 0.00180833 -0.0138101 0.000423 -0.0611502 0.0189251 -0.0258072 2650 
1620 1 -0.00840786 0.00251591 -0.0139055 0.000116 0.0432755 0.0552866 -0.0445268 2650 
3587 1 -0.0061808 0.00399768 -0.0137533 0.000116 0.00461134 0.0023037 -0.00278329 2650 
2322 1 -0.00734912 0.0081201 -0.0137025 0.000656 -0.00712523 -0.00504228 -0.00401487 2650 
1288 1 -0.002467 0.00834034 -0.014044 0.000116 0 -0.011753 0 2650 
2222 1 -0.000169 0.00896934 -0.014111 0.000423 0 -0.011753 0 2650 
581 1 -0.005568 0.00986134 -0.014167 0.000423 0 -0.011753 0 2650 
2483 1 -0.00880665 0.0117245 -0.0134931 0.000116 -0.0165283 -0.027419 -0.0195094 2650 
1476 1 -0.006941 0.0111403 -0.013435 0.000423 0 -0.011753 0 2650 
1409 1 -0.00044 0.0121203 -0.013868 0.000116 0 -0.011753 0 2650 
884 1 -0.00599674 0.0134895 -0.0136169 0.000656 -0.0213431 0.0225291 0.0346991 2650 
728 1 -0.00345066 0.0163756 -0.0134524 0.000116 0.0277452 0.106546 0.043675 2650 
4267 1 -0.00482505 0.0209534 -0.0141331 4.2e-05 -0.061885 0.176997 -0.181487 2650 
1900 1 -0.00768947 0.0238665 -0.0142037 0.000423 0.00650864 0.175596 0.0646267 2650 
819 1 -0.00831645 0.0258249 -0.0134422 0.000423 -0.0315835 0.180598 -0.150119 2650 
3453 1 -0.00837981 0.0313984 -0.013817 0.000423 0.0494691 0.284608 0.0822627 2650 
327 1 -0.0035952 -0.00325442 -0.0133473 4.2e-05 0.0194283 -0.0131126 0.0403205 2650 
3633 1 -0.00941 -0.00286366 -0.013111 0.000423 0 -0.011753 0 2650 
3295 1 -0.00525032 -0.00294992 -0.0132927 0.000656 -0.0807434 0.00895943 0.0888727 2650 
2559 1 -0.00210086 -0.0029372 -0.0128784 0.000423 -0.0863785 -0.0258812 -0.0383403 2650 
388 1 -0.00834633 -0.00027832 -0.012901 0.000116 -0.0420133 -0.0198333 -0.0745178 2650 
955 1 -0.00439197 -0.000445738 -0.013243 0.000116 -0.12233 -0.0547202 -0.0330024 2650 
450 1 -0.00738142 0.000781206 -0.0128599 0.000656 -0.028043 0.0444023 -0.0860848 2650 
3551 1 -0.005293 0.00048134 -0.013215 0.000423 0 -0.011753 0 2650 
3637 1 -0.00250657 0.000823312 -0.0130519 0.000423 -0.0253615 0.00907389 -0.0496618 2650 
4371 1 -0.000719 0.00187934 -0.012831 0.000116 0 -0.011753 0 2650 
2283 1 -0.000701 0.00219434 -0.012847 0.000116 0 -0.011753 0 2650 
2957 1 -0.00433307 0.00263519 -0.0126623 4.2e-05 0.0931185 -0.0545985 0.0471048 2650 
2525 1 -0.004063 0.00256734 -0.013231 4.2e-05 0 -0.011753 0 2650 
1595 1 -0.007474 0.00322534 -0.012756 0.000423 0 -0.011753 0 2650 
2619 1 -0.005851 0.00338334 -0.012854 0.000116 0 -0.011753 0 2650 
3880 1 -0.010277 0.00429934 -0.012913 0.000423 0 -0.011753 0 2650 
2609 1 -0.00886 0.00410734 -0.013248 0.000116 0 -0.011753 0 2650 
1569 1 -0.00300071 0.00412809 -0.0126739 0.000423 -0.0214929 0.00568835 0.0411045 2650 
2194 1 -0.00277175 0.00454558 -0.0126967 4.2e-05 0.00491046 0.00111596 0.00228026 2650 
222 1 -0.00153395 0.004628 -0.013062 0.000656 -0.00693584 -0.0507115 -0.0323512 2650 
2918 1 -0.00757 0.00545834 -0.012948 0.000116 0 -0.011753 0 2650 
3917 1 -0.003984 0.00486834 -0.012703 0.000116 0 -0.011753 0 2650 
2059 1 -0.003583 0.00507734 -0.012756 0.000116 0 -0.011753 0 2650 
2547 1 -0.00958697 0.0059036 -0.0131113 0.000423 -0.0347886 0.0314203 0.0010098 2650 
1584 1 -0.00311943 0.00610785 -0.0130135 0.000423 0.0377863 -0.0108548 -0.0614448 2650 
4078 1 -0.00707952 0.00723596 -0.0128431 0.000423 -0.0196946 -0.00953845 0.00130892 2650 
1427 1 -0.002948 0.00740834 -0.013376 4.2e-05 0 -0.011753 0 2650 
3259 1 -0.008055 0.00847334 -0.013388 0.000116 0 -0.011753 0 2650 
713 1 -0.00564432 0.0084066 -0.0131654 0.000423 -0.0229952 -0.0104665 0.0222494 2650 
1795 1 -0.008775 0.00940734 -0.012959 0.000423 0 -0.011753 0 2650 
1769 1 -0.00495447 0.00932468 -0.0131957 0.000656 -0.011011 -0.0133928 0.00327466 2650 
205 1 -0.000744 0.0101243 -0.01334 0.000116 0 -0.011753 0 2650 
1775 1 -0.00822078 0.012821 -0.0130092 0.000423 -7.29146e-05 -0.011186 -0.000346901 2650 
3644 1 -0.000733 0.0127953 -0.013392 0.000423 0 -0.011753 0 2650 
2109 1 -0.00335108 0.0143626 -0.0132457 0.000423 -0.0263796 0.073224 -0.0180073 2650 
4250 1 -0.0677828 -0.0184807 -0.0122683 0.000116 -0.579388 -0.149069 3.20115 2650 
2544 1 -0.0046049 -0.00325166 -0.0119355 0.000423 -0.120839 -0.0237096 -0.0167299 2650 
4150 1 -0.00264089 -0.00318348 -0.0120654 0.000116 -0.0881619 -0.0334166 0.00950769 2650 
868 1 -0.000201 -0.00323366 -0.012301 0.000116 0 -0.011753 0 2650 
1487 1 -0.00475016 -0.00286044 -0.0123644 0.000116 -0.0134684 0.00499043 0.110171 2650 
2939 1 -0.00895547 -0.00176563 -0.012601 0.000116 -0.0411394 0.0381719 0.0659172 2650 
2819 1 -0.007468 -0.00087366 -0.012046 0.000116 0 -0.011753 0 2650 
2468 1 -0.003167 -0.00103466 -0.012131 0.000423 0 -0.011753 0 2650 
545 1 -0.002328 -0.00140766 -0.012432 4.2e-05 0 -0.011753 0 2650 
950 1 -0.010031 -0.00014166 -0.011866 0.000116 0 -0.011753 0 2650 
1763 1 -0.001143 -0.00074666 -0.012442 0.000656 0 -0.011753 0 2650 
1422 1 -0.003881 0.00109934 -0.012349 4.2e-05 0 -0.011753 0 2650 
1774 1 -0.000979195 0.00152223 -0.0124263 0.000423 0.0349043 0.0565747 -0.0552412 2650 
623 1 -0.005429 0.00160634 -0.012246 0.000116 0 -0.011753 0 2650 
1799 1 -0.003237 0.00191434 -0.012061 0.000423 0 -0.011753 0 2650 
3956 1 -0.00896771 0.00269209 -0.0122766 0.000656 -0.000838464 -0.0112695 -0.000254236 2650 
3389 1 -0.010415 0.00336534 -0.012026 0.000116 0 -0.011753 0 2650 
411 1 -0.00968098 0.0051935 -0.0120822 0.000116 -0.00787832 -0.00657823 -8.20909e-05 2650 
3826 1 -0.009208 0.00526034 -0.012552 0.000116 0 -0.011753 0 2650 
3316 1 -0.008979 0.00601334 -0.012376 0.000423 0 -0.011753 0 2650 
1261 1 -0.007462 0.00591734 -0.012403 0.000423 0 -0.011753 0 2650 
3362 1 -0.002672 0.00602634 -0.012199 0.000116 0 -0.011753 0 2650 
3446 1 -0.002592 0.00702034 -0.012627 0.000423 0 -0.011753 0 2650 
3030 1 -0.001189 0.00752334 -0.012596 0.000116 0 -0.011753 0 2650 
4318 1 -0.00804758 0.00840461 -0.0126277 0.000423 -0.00589465 -0.00768269 0.00318441 2650 
2913 1 -0.0047553 0.00802878 -0.0118974 0.000116 -0.028239 -0.0119827 -0.0130286 2650 
191 1 -0.011348 0.00884434 -0.012254 0.000116 0 -0.011753 0 2650 
3847 1 -0.00973654 0.00944824 -0.0124052 0.000656 6.67707e-05 -0.0116743 2.1441e-05 2650 
1495 1 -0.004483 0.00899134 -0.012591 0.000116 0 -0.011753 0 2650 
1250 1 -0.007399 0.0101703 -0.012448 0.000423 0 -0.011753 0 2650 
3173 1 -0.004958 0.00965234 -0.012321 4.2e-05 0 -0.011753 0 2650 
3106 1 -0.00380695 0.0100547 -0.0119724 0.000423 -2.72641e-05 0.0166574 0.111537 2650 
2630 1 -0.001036 0.00986034 -0.012074 4.2e-05 0 -0.011753 0 2650 
4002 1 -0.000443 0.00968434 -0.01223 0.000116 0 -0.011753 0 2650 
70 1 -0.0106004 0.0104669 -0.0123372 0.000116 0.00881709 0.0274246 0.0240282 2650 
65 1 -0.009488 0.0110653 -0.011959 0.000116 0 -0.011753 0 2650 
4314 1 -0.00795695 0.01124 -0.0120815 0.000423 -0.081014 -0.0186136 0.0169729 2650 
1423 1 -0.00145 0.0113403 -0.012526 4.2e-05 0 -0.011753 0 2650 
1578 1 -0.0107616 0.0126069 -0.0123666 0.000423 0.00693886 -0.000720995 0.0338186 2650 
1974 1 -0.00557826 0.0129506 -0.0125251 4.2e-05 -0.0917311 0.0247116 0.0427267 2650 
2205 1 -0.00491481 0.0131234 -0.0121055 0.000656 -0.00241752 0.00375043 0.00610124 2650 
1143 1 -0.00149716 0.0134123 -0.0119429 0.000423 0.00744219 0.00969658 -0.00437689 2650 
2250 1 -0.00802272 0.0142395 -0.0126155 0.000423 -0.0795114 0.075595 0.0420437 2650 
3455 1 -0.00179948 0.0144107 -0.0118702 0.000423 -0.039909 0.0392628 -0.197047 2650 
1381 1 -0.00769932 0.0150769 -0.0118425 0.000116 -0.000908202 0.0816555 0.108061 2650 
2467 1 -0.00404039 0.0191436 -0.012338 0.000423 0.022189 0.122131 -0.0980488 2650 
1924 1 -0.0113917 -0.00347555 -0.0118006 0.000423 -0.756696 -0.0698715 -0.749118 2650 
3679 1 -0.012092 -0.00269666 -0.011604 0.000116 0 -0.011753 0 2650 
2072 1 -0.009308 -0.00283466 -0.011721 0.000116 0 -0.011753 0 2650 
3505 1 -0.006952 -0.00173866 -0.011235 4.2e-05 0 -0.011753 0 2650 
1022 1 -0.002093 -0.00186866 -0.011454 0.000423 0 -0.011753 0 2650 
2166 1 -0.00918948 -0.00155504 -0.0116867 0.000116 -0.0143174 -0.0293231 -0.0106889 2650 
3960 1 -0.00867957 -0.00121504 -0.0116048 0.000423 -0.0011096 -0.0310235 -0.0206256 2650 
3191 1 -0.00599374 -0.000806467 -0.0117166 0.000656 -0.00833246 0.0061838 -0.01197 2650 
440 1 -0.00061 -0.00043666 -0.011485 4.2e-05 0 -0.011753 0 2650 
3643 1 -0.00549781 0.00113389 -0.0116405 0.000423 -0.00957218 0.0175786 -0.0039661 2650 
1452 1 -0.00107682 0.00145049 -0.011063 0.000423 0.00554637 -0.012591 0.0031522 2650 
4215 1 -0.011184 0.00167234 -0.011524 0.000423 0 -0.011753 0 2650 
2279 1 -0.011345 0.00223534 -0.01145 0.000116 0 -0.011753 0 2650 
2579 1 -0.0087226 0.00178353 -0.0112181 0.000423 -0.000311164 -0.0069809 0.00202215 2650 
3201 1 -0.00460301 0.00190958 -0.0117852 0.000423 -0.0605399 -0.0413426 -0.023818 2650 
3535 1 -9.9e-05 0.00197534 -0.011488 0.000423 0 -0.011753 0 2650 
3894 1 -0.005583 0.00273434 -0.011098 0.000116 0 -0.011753 0 2650 
1063 1 -0.009531 0.00328934 -0.011683 0.000116 0 -0.011753 0 2650 
1059 1 -0.00703181 0.00352379 -0.0110958 0.000116 -0.00683586 -0.0187509 0.0600761 2650 
3383 1 -0.011681 0.00428434 -0.011229 0.000116 0 -0.011753 0 2650 
1657 1 -0.00917435 0.00458326 -0.011749 0.000656 -0.0116375 -0.0115716 0.0121112 2650 
3542 1 -0.00372529 0.00458143 -0.0112777 0.000423 0.00241856 -0.00915467 -0.000529042 2650 
2294 1 -0.004894 0.00497034 -0.011565 0.000116 0 -0.011753 0 2650 
878 1 -0.003908 0.00545334 -0.011202 4.2e-05 0 -0.011753 0 2650 
708 1 -0.00252 0.00516634 -0.011391 0.000423 0 -0.011753 0 2650 
1822 1 -0.008034 0.00602334 -0.011166 0.000116 0 -0.011753 0 2650 
1758 1 -0.00201 0.00628434 -0.01144 4.2e-05 0 -0.011753 0 2650 
1215 1 -0.0103135 0.00644631 -0.0113045 0.000656 -0.0151247 -0.0120252 0.00241313 2650 
4027 1 -0.003218 0.00741534 -0.011075 0.000116 0 -0.011753 0 2650 
2409 1 -0.002586 0.00735434 -0.011527 4.2e-05 0 -0.011753 0 2650 
2798 1 -0.008755 0.00845434 -0.01131 0.000423 0 -0.011753 0 2650 
171 1 -0.00155275 0.00798752 -0.0117399 0.000116 0.0221612 -0.025445 0.125633 2650 
1617 1 -0.00424 0.00934334 -0.011492 0.000116 0 -0.011753 0 2650 
233 1 -0.00489751 0.0109829 -0.0115383 0.000423 0.00253467 -0.0140185 -0.0192435 2650 
3684 1 -0.0047085 0.0102942 -0.0115499 0.000116 0.00413104 -0.0230128 -0.00941473 2650 
1663 1 -0.0098749 0.0115101 -0.0113327 0.000423 -0.00585048 -0.0195656 0.00569326 2650 
3145 1 -0.006381 0.0118063 -0.011273 0.000116 0 -0.011753 0 2650 
4257 1 -0.0115462 0.0122331 -0.0116276 0.000116 0.0066689 0.0215647 -0.146792 2650 
976 1 -0.005828 0.0131833 -0.011785 0.000116 0 -0.011753 0 2650 
4160 1 -0.00883574 0.0134692 -0.0118203 4.2e-05 -0.100429 0.0333659 0.0668689 2650 
911 1 -0.00950715 0.0146086 -0.0113519 0.000423 -0.0526708 0.0464536 0.0089698 2650 
3784 1 -0.0106495 0.0165865 -0.011796 0.000116 0.0423878 0.0666065 0.0301123 2650 
1254 1 -0.00517724 0.0196507 -0.0115504 0.000423 -0.0693317 0.161023 -0.144827 2650 
4373 1 -0.004239 -0.00247266 -0.010869 4.2e-05 0 -0.011753 0 2650 
3426 1 -0.00103407 -0.00274968 -0.0105409 0.000423 -0.00109119 -0.0119118 0.00171421 2650 
15 1 -0.001892 -0.00208166 -0.010407 0.000423 0 -0.011753 0 2650 
3093 1 -0.0029055 -0.000804995 -0.0108287 0.000423 -0.000676928 -0.0109568 -0.00158381 2650 
2130 1 -0.000316 -0.00101766 -0.010491 0.000423 0 -0.011753 0 2650 
1193 1 -4.3e-05 -0.00045166 -0.010628 0.000116 0 -0.011753 0 2650 
369 1 -0.0123691 0.000711258 -0.0104423 0.000423 0.0175486 -0.0220683 -0.100981 2650 
2022 1 -0.00558388 0.000237981 -0.0109956 0.000423 0.00555421 0.00115867 0.00414171 2650 
3673 1 -0.00271798 2.31011e-05 -0.0108341 0.000423 0.000169124 -0.0108514 -9.18803e-05 2650 
2817 1 -0.00170614 0.000403192 -0.0105885 0.000116 -0.0539328 -0.00567838 -0.0938536 2650 
3284 1 -0.001323 3.73396e-05 -0.010635 4.2e-05 0 -0.011753 0 2650 
3530 1 -0.000573 0.00050734 -0.010526 0.000423 0 -0.011753 0 2650 
1233 1 -0.012882 0.00166634 -0.010287 0.000423 0 -0.011753 0 2650 
497 1 -0.00574 0.00266034 -0.010398 0.000116 0 -0.011753 0 2650 
124 1 -0.005032 0.00256534 -0.01051 0.000423 0 -0.011753 0 2650 
1192 1 -0.004051 0.00288434 -0.010435 0.000116 0 -0.011753 0 2650 
3411 1 -0.00956776 0.00316259 -0.0105057 0.000656 0.0131942 0.0130309 0.0293002 2650 
2922 1 -0.00219049 0.00318636 -0.010698 0.000116 -0.0492521 -0.0166623 -0.0574868 2650 
2474 1 -0.00219087 0.00465963 -0.010419 0.000423 -0.00698311 -0.00271323 -0.0184622 2650 
2485 1 -0.000599433 0.00412772 -0.0109653 0.000116 0.105115 -0.0174821 0.0881387 2650 
3790 1 -0.0133189 0.00514105 -0.0102799 0.000116 0.0176519 0.0133245 0.0170665 2650 
2512 1 -0.00897218 0.0053518 -0.0103674 0.000116 -0.0632252 0.033084 -0.0514495 2650 
2912 1 -0.006578 0.00482734 -0.010859 0.000116 0 -0.011753 0 2650 
3787 1 -0.006362 0.00526334 -0.010668 0.000116 0 -0.011753 0 2650 
760 1 -0.006943 0.00560034 -0.010573 4.2e-05 0 -0.011753 0 2650 
861 1 -0.006339 0.00577434 -0.010358 0.000116 0 -0.011753 0 2650 
2948 1 -0.002008 0.00696634 -0.010384 0.000116 0 -0.011753 0 2650 
2500 1 -0.010648 0.00714934 -0.010771 0.000116 0 -0.011753 0 2650 
4166 1 -0.00423559 0.00722867 -0.0105708 0.000656 -0.000473131 -0.0124074 -0.000835587 2650 
949 1 -0.00474979 0.00853945 -0.0109391 0.000116 -0.0176455 0.0180502 -0.0430698 2650 
3727 1 -0.00442567 0.0079048 -0.0104051 4.2e-05 -0.00143931 -0.00938471 -0.0055359 2650 
3456 1 -0.00350991 0.00804135 -0.0109061 0.000423 -0.000997028 -0.0111859 -0.00366568 2650 
3132 1 -0.007716 0.00922534 -0.01033 0.000116 0 -0.011753 0 2650 
1935 1 -0.00599547 0.0091718 -0.0106709 0.000116 -0.0109651 0.0201009 -0.000367915 2650 
2097 1 -0.00889 0.00971834 -0.010395 0.000656 0 -0.011753 0 2650 
89 1 -0.003936 0.00977034 -0.010466 0.000116 0 -0.011753 0 2650 
131 1 -0.00303184 0.00964513 -0.0103323 0.000423 -0.118196 0.0928437 -0.0308169 2650 
2759 1 -0.011495 0.0107183 -0.010915 0.000656 0 -0.011753 0 2650 
1376 1 -0.009927 0.0104643 -0.010971 0.000116 0 -0.011753 0 2650 
2261 1 -0.007381 0.0108153 -0.010514 0.000116 0 -0.011753 0 2650 