ITEM: TIMESTEP
7029498
ITEM: NUMBER OF ATOMS
4340
ITEM: BOX BOUNDS ff ff ff
-0.15 0.15
-0.15 0.06
-0.15 0.15
ITEM: ATOMS id type x y z radius vx vy vz density 
4366 1 -0.00473384 -0.059268 -0.0687213 0.000116 -0.975316 0.773358 0.0671843 2650 
632 1 -0.00222006 -0.0559529 -0.0688483 0.000116 -3.37659 -0.0998379 0.10888 2650 
3348 1 -0.00559766 -0.0624376 -0.068031 0.000116 2.9532 0.168553 -0.144977 2650 
3069 1 -0.00876003 -0.0553538 -0.0683994 4.2e-05 5.1683 -0.284312 -0.661913 2650 
259 1 -0.017075 -0.0608387 -0.0664183 0.000423 -1.55983 -0.256504 0.401005 2650 
239 1 -0.0163899 -0.048618 -0.0665907 0.000423 -2.44438 -0.498986 0.601632 2650 
3387 1 -0.0228578 -0.0533242 -0.0649811 0.000116 -1.28999 -2.73081 0.453767 2650 
1587 1 -0.0249096 -0.0605828 -0.0633537 0.000423 3.91237 1.68823 -1.20844 2650 
575 1 -0.0226783 -0.0621522 -0.0625625 0.000423 7.88989 0.778487 -1.0628 2650 
897 1 -0.0270223 -0.0502208 -0.0630297 0.000423 -1.60857 0.330051 0.689629 2650 
814 1 -0.027117 -0.0469374 -0.062989 0.000423 -2.22855 0.194156 0.959398 2650 
2451 1 -0.0299683 -0.0450707 -0.0616835 0.000423 -3.29282 -0.754059 1.59978 2650 
1326 1 -0.0377202 -0.0524376 -0.0569947 0.000656 -2.20409 -0.0839872 1.45873 2650 
4139 1 -0.0379007 -0.051249 -0.0574311 0.000116 -2.06524 1.03883 0.893183 2650 
3918 1 -0.0425389 -0.0621942 -0.0541799 0.000116 0.186647 -0.995172 -0.146545 2650 
4373 1 -0.0431956 -0.0597183 -0.0537527 4.2e-05 -2.47254 -0.760344 1.98693 2650 
19 1 -0.0424158 -0.0583769 -0.0538874 0.000423 0.747065 -0.105282 -0.58803 2650 
1231 1 -0.0419823 -0.0455051 -0.0542257 0.000423 -0.986677 -0.0319523 0.763899 2650 
3090 1 -0.0434236 -0.0486584 -0.0530786 0.000423 -1.15646 -1.32026 0.946098 2650 
868 1 -0.0443963 -0.0592288 -0.0526687 0.000116 -1.44087 0.222503 1.21456 2650 
833 1 -0.0396828 -0.0574765 -0.0518136 0.000116 1.5545 1.33985 -4.76985 2650 
3974 1 -0.0468739 -0.0590179 -0.0500578 0.000423 0.533195 0.0883829 -0.499282 2650 
3005 1 -0.048644 -0.0586952 -0.0483395 0.000423 -0.986183 -0.730222 0.992395 2650 
2 1 -0.0491353 -0.053498 -0.0475072 0.000656 -1.91057 0.0115858 1.97604 2650 
3613 1 -0.0373674 -0.0624743 -0.0441796 4.2e-05 10.8214 0.455234 -4.12381 2650 
2167 1 -0.052978 -0.0476066 -0.0440267 0.000116 -0.0216558 -0.434884 0.0260587 2650 
2527 1 -0.0320556 -0.0507106 -0.0415455 4.2e-05 4.27674 -2.27219 -3.56228 2650 
3547 1 -0.0553528 -0.0581421 -0.0404847 0.000423 -0.508272 -1.15361 0.694936 2650 
1805 1 -0.0552337 -0.0514817 -0.0406471 0.000423 -0.918597 0.227099 1.24824 2650 
2210 1 -0.060697 -0.0504854 -0.0314179 0.000656 -1.36913 -0.542243 2.64505 2650 
1256 1 -0.0651016 -0.0475358 -0.0215577 0.000423 -0.649487 -0.459124 1.96137 2650 
2515 1 -0.0658522 -0.0483077 -0.0202117 0.000116 1.6175 0.452264 -5.27 2650 
1081 1 -0.0663953 -0.0592959 -0.0183493 0.000116 2.0845 0.71888 -7.54257 2650 
3088 1 -0.0668194 -0.0599759 -0.0154313 0.000423 -0.642405 0.0184438 2.78169 2650 
935 1 -0.068544 -0.0559895 -0.00216112 0.000423 -0.0509625 -0.476987 1.61637 2650 
2087 1 -0.0685207 -0.0546482 0.00775367 4.2e-05 0.415371 1.91361 3.67072 2650 
1912 1 -0.0681082 -0.049076 0.00801395 0.000423 0.204893 -0.0901537 1.74132 2650 
2803 1 -0.0680396 -0.0598216 0.0107535 0.000116 -0.772606 0.0967529 -4.88843 2650 
1417 1 -0.0680718 -0.0477217 0.0105477 0.000116 -0.288176 1.52271 -1.8598 2650 
1312 1 -0.063556 -0.0619745 0.0111357 4.2e-05 1.32131 -0.0864174 -12.4158 2650 
3375 1 -0.0679738 -0.0484447 0.0111617 0.000116 -1.08425 0.341149 -6.60298 2650 
4036 1 -0.0619703 -0.0622697 0.015776 0.000116 -3.81997 0.0402894 -8.11552 2650 
1721 1 -0.0659102 -0.0501783 0.0200218 0.000116 -0.134687 -0.410563 -0.443379 2650 
3785 1 -0.0642949 -0.0549613 0.0247221 0.000116 0.384665 -0.346478 1.0004 2650 
3933 1 -0.0631776 -0.0588204 0.027452 0.000116 0.347376 0.231715 0.799446 2650 
753 1 -0.0606655 -0.0468989 0.0326301 0.000116 0.505187 -0.800504 0.939238 2650 
3308 1 -0.0598579 -0.0525998 0.0334661 0.000423 1.25226 0.490894 2.23981 2650 
167 1 -0.0593025 -0.0537835 0.0350461 0.000116 -0.308584 0.3283 -0.522164 2650 
2928 1 -0.0566172 -0.0568446 0.0392149 0.000116 -5.48732 1.89038 -8.02926 2650 
295 1 -0.0517662 -0.0553005 0.0454454 0.000116 -1.34553 -1.54429 -1.53267 2650 
2920 1 -0.0460454 -0.0622852 0.0500742 0.000116 -2.44575 0.343417 -0.13925 2650 
3038 1 -0.0460045 -0.0605363 0.05127 0.000116 -0.684881 -0.0491379 -0.614543 2650 
3034 1 -0.044228 -0.0606793 0.0528101 0.000116 -2.6329 -0.119357 -2.20503 2650 
2813 1 -0.0371868 -0.0519244 0.0579842 0.000116 2.7704 -1.57254 1.77673 2650 
816 1 -0.00614874 -0.0570985 0.068302 0.000423 -5.61136 0.369274 -0.505151 2650 
992 1 -0.00741104 -0.0463632 0.0679432 0.000656 1.59541 0.00526953 0.174023 2650 
1408 1 -0.00492441 -0.00970781 -0.0687079 0.000116 -3.04548 0.0129786 0.218275 2650 
2685 1 -0.00864914 -0.0388394 -0.0680304 0.000423 -1.77565 0.472563 0.225749 2650 
3622 1 -0.0058539 -0.0333428 -0.068095 0.000656 -1.98656 0.528774 0.170777 2650 
2343 1 -0.00430887 -0.0279714 -0.0684426 0.000423 -2.22825 -0.04108 0.140282 2650 
394 1 -0.0107707 -0.0253207 -0.0680369 0.000116 -2.60564 -0.394112 0.412491 2650 
1537 1 -0.00885795 -0.0200238 -0.0683867 4.2e-05 -2.31772 -0.481411 0.300208 2650 
2681 1 -0.00187732 -0.0129253 -0.0685524 0.000423 -3.16196 0.0668165 0.0865909 2650 
3989 1 -0.00185266 -0.00397667 -0.068553 0.000423 -2.28097 0.0284937 0.0616436 2650 
2818 1 -0.00965288 -0.041158 -0.0678795 0.000116 -1.00329 0.0124951 0.208568 2650 
2858 1 -0.0102524 -0.022267 -0.0675729 0.000656 -2.62085 0.16459 0.397646 2650 
4293 1 -0.0140294 -0.0213892 -0.0671277 0.000423 -2.06819 0.397305 0.432242 2650 
2064 1 -0.0142157 -0.0166004 -0.0674013 0.000116 -3.04149 -0.144281 0.641483 2650 
3782 1 -0.0113837 -0.0160516 -0.0676267 0.000423 -3.16371 -0.2098 0.532551 2650 
198 1 -0.0133851 -0.0126506 -0.0675712 0.000116 -2.8562 0.560085 0.565784 2650 
410 1 -0.0123576 -0.00705202 -0.0677666 0.000116 -1.98183 -0.251672 0.361398 2650 
415 1 -0.0117659 -0.00566311 -0.0678718 0.000116 -3.37035 0.0317258 0.584265 2650 
1838 1 -0.0184351 -0.0186582 -0.0663714 0.000116 -2.61807 -0.755602 0.727186 2650 
2821 1 -0.0164318 -0.0131717 -0.0668956 0.000116 -2.84861 -0.197907 0.699713 2650 
3926 1 -0.0181716 -0.00808248 -0.0664441 0.000116 -2.33233 -0.28433 0.637862 2650 
3153 1 -0.0154535 -0.00482617 -0.0669608 0.000116 -3.31651 -0.106511 0.00673983 2650 
164 1 -0.0197217 -0.0375901 -0.0656811 0.000423 -2.16741 -0.119179 0.650796 2650 
917 1 -0.0196162 -0.0223559 -0.0657127 0.000423 -2.42608 0.00114771 0.724224 2650 
1878 1 -0.0181871 -0.0143295 -0.065882 0.000656 -2.29476 0.351911 0.633484 2650 
3366 1 -0.022884 -0.0313828 -0.0649719 0.000116 0.365508 -5.09953 -0.128737 2650 
335 1 -0.0207832 -0.0239479 -0.0651096 0.000656 -2.59381 -0.0855489 0.827954 2650 
1335 1 -0.0210027 -0.0227017 -0.0652828 0.000423 -2.51484 -0.00963488 0.809073 2650 
3378 1 -0.022907 -0.01736 -0.0649638 0.000116 -2.89715 -0.631506 1.02157 2650 
4309 1 -0.0212163 -0.0121892 -0.0652136 0.000423 -2.07923 0.441134 0.676446 2650 
4095 1 -0.0205961 -0.00602816 -0.0654122 0.000423 -2.52191 0.219934 0.794065 2650 
1832 1 -0.0213025 -0.000324267 -0.0655074 0.000116 -1.16212 -0.269989 0.377912 2650 
1958 1 -0.0251469 -0.0335812 -0.06413 0.000116 -2.44759 0.311182 0.959758 2650 
3329 1 -0.0244283 -0.0226318 -0.0640797 0.000423 -2.0566 -0.245014 0.784014 2650 
1995 1 -0.0227915 -0.0112128 -0.06468 0.000423 -3.02722 -0.215681 1.06671 2650 
3139 1 -0.0246416 -0.00685409 -0.0643259 0.000116 -3.11416 -0.0315003 1.19295 2650 
4264 1 -0.0241847 -0.00194099 -0.064578 4.2e-05 -2.94918 0.226113 1.10448 2650 
3708 1 -0.0243049 -0.000491524 -0.0644538 0.000116 -2.76274 0.0340367 1.0418 2650 
1227 1 -0.0258211 -0.0213736 -0.0635313 0.000423 -2.24686 -0.153147 0.913192 2650 
2612 1 -0.0282505 -0.0350918 -0.0628246 0.000116 -2.3892 0.134271 1.07436 2650 
3229 1 -0.0284486 -0.0222965 -0.0623989 0.000423 -2.46558 0.333527 1.1241 2650 
1323 1 -0.0261513 -0.019853 -0.063134 0.000656 -1.51999 -0.239569 0.624456 2650 
1208 1 -0.0267527 -0.000784724 -0.0628661 4.2e-05 3.64754 -2.38081 -1.26294 2650 
2480 1 -0.0307035 -0.0308608 -0.0616629 0.000116 -2.17937 -1.11331 1.08517 2650 
3260 1 -0.0308885 -0.00259036 -0.0615705 0.000116 -1.71836 -0.663179 0.862065 2650 
3198 1 -0.0314919 -0.043826 -0.0609197 0.000423 -1.19086 0.0203758 0.615603 2650 
3863 1 -0.0309257 -0.0215273 -0.0612091 0.000423 -2.09755 -0.164637 1.0637 2650 
121 1 -0.0298757 -0.0215341 -0.0614707 0.000656 -2.11297 0.0522006 1.02923 2650 
1964 1 -0.0323866 -0.00183171 -0.0607958 0.000116 -0.212992 -0.347403 0.113463 2650 
3525 1 -0.0311731 -0.000485256 -0.0610835 0.000423 -2.76316 -0.0337381 1.41014 2650 
4132 1 -0.0325179 -0.0420514 -0.0606895 0.000116 0.358718 -0.348221 -0.854307 2650 
107 1 -0.0334068 -0.030484 -0.0603257 4.2e-05 -0.543603 1.73531 0.301033 2650 
1544 1 -0.0318522 -0.0169839 -0.0604701 0.000656 -1.64885 0.086812 0.868522 2650 
1468 1 -0.0255442 -0.0108521 -0.0603478 0.000423 -2.57162 -0.462008 1.59687 2650 
1901 1 -0.0325615 -0.00718366 -0.0603548 0.000423 -3.05186 0.226361 1.64323 2650 
1177 1 -0.0337781 -0.0066044 -0.0600338 0.000116 -1.87783 -0.0401612 1.05656 2650 
2396 1 -0.0347954 -0.0196958 -0.05945 0.000116 -2.79762 -0.103422 1.63742 2650 
1290 1 -0.0348475 -0.0163191 -0.0594195 0.000116 -2.85378 -0.196533 1.67364 2650 
4312 1 -0.0344485 -0.0126153 -0.059298 0.000423 -3.29208 0.0280685 1.9125 2650 
1214 1 -0.0331127 -0.00792204 -0.0597893 0.000656 -2.72658 0.117845 1.48367 2650 
2895 1 -0.0342768 -0.000737871 -0.0593974 0.000423 -2.97056 -0.0584154 1.71424 2650 
4016 1 -0.0359649 -0.0390746 -0.0587499 0.000116 -2.12321 -0.135815 1.29977 2650 
3470 1 -0.0364617 -0.0149405 -0.0584428 0.000116 -2.55663 -0.261965 1.59505 2650 
2967 1 -0.034237 -0.00812154 -0.0591525 0.000656 -2.09614 0.451896 1.23442 2650 
2738 1 -0.0354659 -0.00581431 -0.0591386 4.2e-05 1.48848 -0.413752 -0.892652 2650 
1655 1 -0.0355899 -0.0411001 -0.0583486 0.000656 1.70372 0.231563 -1.03942 2650 
4038 1 -0.0366 -0.0130274 -0.0583564 0.000116 -2.56886 -0.180573 1.61114 2650 
827 1 -0.0372971 -0.0101409 -0.0579133 0.000116 -1.41345 0.327418 0.910284 2650 
486 1 -0.0378407 -0.0447772 -0.0571929 0.000423 -0.960621 -0.0886358 0.635577 2650 
1058 1 -0.038665 -0.03667 -0.0570091 0.000116 -1.5782 -0.333913 1.07037 2650 
2169 1 -0.0388018 -0.0340636 -0.0569161 0.000116 -0.902902 -0.544504 0.615542 2650 
3261 1 -0.0357969 -0.0203776 -0.0575278 0.000116 -0.436266 -0.216026 0.265292 2650 
334 1 -0.0379159 -0.0192254 -0.0568647 0.000656 -2.24644 -0.373579 1.49787 2650 
1956 1 -0.0378123 -0.000831694 -0.0575782 0.000116 -0.651787 -0.0492432 0.428036 2650 
1203 1 -0.0399308 -0.000234491 -0.0562205 4.2e-05 4.46662 0.148088 -3.18394 2650 
1471 1 -0.0403579 -0.0441775 -0.0554454 0.000423 -0.0774203 -0.347308 0.0563531 2650 
2487 1 -0.0408281 -0.0231627 -0.0554805 0.000116 -1.71568 0.233489 1.26257 2650 
3055 1 -0.0408188 -0.00855841 -0.0554873 0.000116 -2.29672 -0.0391707 1.68957 2650 
2820 1 -0.0407167 -0.00470843 -0.0555623 0.000116 -2.05345 0.607151 1.50479 2650 
432 1 -0.0422758 -0.0433948 -0.0544791 4.2e-05 -0.829435 0.260725 0.643641 2650 
3642 1 -0.0415151 -0.0343006 -0.0545843 0.000423 -1.83696 0.0248886 1.39713 2650 
1555 1 -0.0416091 -0.0130929 -0.0545127 0.000423 -1.84429 0.383944 1.40774 2650 
1841 1 -0.0419998 -0.0104327 -0.0545989 0.000116 -2.40011 0.199316 1.84627 2650 
3313 1 -0.0448567 -0.0080839 -0.0518732 0.000423 -1.30851 0.434322 1.13152 2650 
2060 1 -0.0463379 -0.0121435 -0.0509688 0.000116 0.431127 -0.692749 -0.391956 2650 
3688 1 -0.0472601 -0.0385708 -0.0501149 0.000116 -1.57075 -0.273317 1.48127 2650 
2251 1 -0.0471571 -0.0367813 -0.0497912 0.000423 -1.90265 -0.109277 1.802 2650 
2806 1 -0.0481593 -0.0379818 -0.0492515 0.000116 -1.91424 -0.111322 1.87179 2650 
1016 1 -0.0474749 -0.0313348 -0.0494882 0.000423 -1.83358 0.0722771 1.75899 2650 
3066 1 -0.0479545 -0.00645695 -0.0495538 4.2e-05 3.19349 -0.63591 -3.09043 2650 
1877 1 -0.0479889 -0.0307239 -0.0486649 0.000656 -1.7897 0.160211 1.76483 2650 
4331 1 -0.0490083 -0.0211986 -0.0484067 0.000116 -1.6947 1.57499 1.71576 2650 
2436 1 -0.0484056 -0.0119402 -0.0485782 0.000423 -1.66546 0.353762 1.65954 2650 
27 1 -0.0489535 -0.0340472 -0.0480261 0.000423 -1.80237 0.0342758 1.83718 2650 
2670 1 -0.0495964 -0.0171957 -0.0473619 0.000423 -1.43375 0.24363 1.50139 2650 
2800 1 -0.0494715 -0.00571306 -0.0474923 0.000423 -1.72676 0.523401 1.79873 2650 
4128 1 -0.0505648 -0.0184288 -0.0467785 0.000116 -2.17499 0.0903021 2.35104 2650 
106 1 -0.050417 -0.0127163 -0.0470461 4.2e-05 -1.53905 0.944552 1.64933 2650 
4082 1 -0.0497708 -0.00832317 -0.0471786 0.000423 -2.20584 -0.17926 2.32704 2650 
2000 1 -0.0513716 -0.00685692 -0.0454303 0.000423 -1.46144 -0.359928 1.65256 2650 
1960 1 -0.0524128 -0.0026972 -0.0446981 0.000116 -0.753932 0.167057 0.884057 2650 
3054 1 -0.0527168 -0.00223829 -0.0443392 0.000116 -1.1274 0.281227 1.34041 2650 
791 1 -0.0527557 -0.0169423 -0.0438154 0.000423 -1.89264 -0.386532 2.27883 2650 
392 1 -0.054121 -0.0189574 -0.0426139 0.000116 -1.98759 -0.183837 2.5243 2650 
122 1 -0.0534375 -0.0118074 -0.0426104 0.000656 -1.63919 0.356241 2.0557 2650 
3385 1 -0.0546931 -0.0167384 -0.0418771 0.000116 0.0639027 0.354642 -0.0834593 2650 
2269 1 -0.0543682 -0.00905849 -0.042298 0.000116 -1.84542 -0.198793 2.37203 2650 
588 1 -0.0543386 -0.00632723 -0.0418362 0.000423 -1.72844 0.378392 2.24496 2650 
3692 1 -0.0494657 -0.041543 -0.0407599 0.000116 3.31895 0.196489 -4.68617 2650 
51 1 -0.0558447 -0.0306708 -0.0398035 0.000423 -0.351103 -0.385784 0.492601 2650 
2788 1 -0.0558239 -0.000920792 -0.0398327 0.000423 -1.63571 -0.0352846 2.29238 2650 
2938 1 -0.0565679 -0.00741913 -0.0393077 0.000116 -1.83611 -0.160167 2.64236 2650 
2816 1 -0.0569565 -0.00121978 -0.0387425 0.000116 -1.56273 0.701684 2.29741 2650 
1030 1 -0.0569623 -0.0327934 -0.038187 0.000423 -1.79851 -1.10792 2.68279 2650 
1670 1 -0.0594156 -0.0422136 -0.0342453 0.000423 -0.860057 0.491255 1.4922 2650 
3724 1 -0.0525499 -0.0198077 -0.0332148 4.2e-05 3.85408 0.499555 -10.8964 2650 
3168 1 -0.0603954 -0.0163637 -0.0331274 0.000116 -1.11179 -0.0654076 2.02693 2650 
2576 1 -0.060547 -0.00735829 -0.0322028 0.000423 -1.45257 -0.0564737 2.73108 2650 
3505 1 -0.0199399 -0.00379235 -0.0322245 4.2e-05 -2.93562 -0.07844 -4.7442 2650 
2641 1 -0.0607268 -0.0124368 -0.0313602 0.000656 -1.15637 0.314625 2.23923 2650 
2074 1 -0.0619649 -0.00941656 -0.0300896 0.000116 -2.48776 0.918919 5.12315 2650 
1560 1 -0.0623093 -0.023194 -0.0286444 0.000423 -0.885509 0.306119 1.92622 2650 
3242 1 -0.0624913 -0.00101105 -0.0289803 0.000116 -1.10546 0.0799826 2.38375 2650 
3652 1 -0.0627497 -0.0228742 -0.0276663 0.000423 -0.861343 0.34255 1.9536 2650 
1116 1 -0.0626008 -0.0196638 -0.0280017 0.000423 -0.667064 0.202209 1.49139 2650 
476 1 -0.063039 -0.0163897 -0.0270007 0.000423 -0.668716 0.684419 1.56126 2650 
1784 1 -0.0632705 -0.0405846 -0.0264536 0.000423 -0.812532 -0.292523 1.94337 2650 
2593 1 -0.0641122 -0.0385332 -0.0251923 0.000116 -0.834446 -0.827768 2.12359 2650 
330 1 -0.0646876 -0.00527178 -0.0238899 4.2e-05 -1.11094 -0.119603 3.00814 2650 
115 1 -0.0643993 -0.0325605 -0.0228896 0.000656 -0.841289 0.283283 2.36694 2650 
661 1 -0.0642298 -0.0203982 -0.0233609 0.000656 -0.799378 0.129986 2.20032 2650 
1174 1 -0.0650046 -0.0177862 -0.0227909 0.000116 -0.772072 -0.0125107 2.20212 2650 
1130 1 -0.0648621 -0.0169935 -0.022268 0.000423 -0.748659 0.128562 2.18069 2650 
862 1 -0.0654126 -0.0184659 -0.0215919 0.000116 -0.972224 -0.0859288 2.94535 2650 
671 1 -0.0649219 -0.017607 -0.0213625 0.000656 -0.71113 0.0970652 2.16116 2650 
2066 1 -0.0655074 -0.0152493 -0.0213026 0.000116 -0.606947 1.66417 1.86326 2650 
4307 1 -0.0653251 -0.031298 -0.0208708 0.000423 -0.771563 0.0964613 2.41498 2650 
2148 1 -0.0656447 -0.0289555 -0.0208757 0.000116 2.30467 3.37415 -7.24714 2650 
1669 1 -0.0654365 -0.0146166 -0.0205187 0.000423 -0.520372 0.286148 1.65953 2650 
1424 1 -0.00726433 -0.00429179 -0.0207537 4.2e-05 -1.01943 -0.133044 -2.96776 2650 
1798 1 -0.065461 -0.0325269 -0.0204405 0.000423 -0.791147 0.23704 2.53365 2650 
235 1 -0.065498 -0.015595 -0.0203216 0.000423 -0.570841 0.215788 1.83987 2650 
849 1 -0.0661207 -0.0138803 -0.0193152 0.000116 -0.80049 -0.262997 2.74028 2650 
2538 1 -0.0655597 -0.0129084 -0.0193167 0.000656 -0.862511 -0.105442 2.92693 2650 
2386 1 -0.0661834 -0.0120514 -0.0189759 0.000116 -1.1692 1.23325 2.90816 2650 
1050 1 -0.0660926 -0.0022204 -0.019411 0.000116 -0.101488 -0.12385 0.345557 2650 
1500 1 -0.0663413 -0.0360859 -0.0185431 0.000116 -0.354877 -0.606459 1.26964 2650 
3650 1 -0.065964 -0.0199872 -0.0187538 0.000423 -0.671127 0.308608 2.36055 2650 
2545 1 -0.0659655 -0.018786 -0.0187483 0.000423 -0.650463 0.350069 2.28864 2650 
1475 1 -0.0659483 -0.0137925 -0.0188091 0.000423 -0.761451 -0.22275 2.66989 2650 
2132 1 -0.066162 -0.0182952 -0.0180429 0.000423 -0.708732 0.0750563 2.59886 2650 
358 1 -0.0665131 -0.0248859 -0.0167019 0.000423 -0.599097 -0.000176161 2.38583 2650 
2705 1 -0.066691 -0.00748896 -0.0172432 0.000116 -0.558043 -0.0731246 2.15833 2650 
606 1 -0.000183 0.00270768 -0.016592 0.000116 0 -0.011753 0 2650 
188 1 -0.00127234 0.0106409 -0.0166608 0.000116 -0.0148612 0.0228045 0.00418427 2650 
2713 1 -0.000750207 0.0113231 -0.0165826 0.000116 0.00037122 0.035974 0.00535071 2650 
4010 1 -0.000483633 0.0343791 -0.016801 0.000116 -0.0944465 0.099748 0.0197066 2650 
2817 1 -0.00163914 -0.00352686 -0.0162338 0.000116 -0.116544 -0.0773449 -1.2358 2650 
736 1 -0.00470874 0.000412686 -0.0160127 0.000116 -0.0307431 -0.0170391 0.0144389 2650 
30 1 -0.000514524 0.00038896 -0.0164424 0.000423 -0.0136125 -0.0214967 0.00834717 2650 
1679 1 -0.00372177 0.00303071 -0.0160807 0.000423 -0.00409429 0.0161755 0.0020216 2650 
2013 1 -0.00281398 0.00283254 -0.0160559 0.000423 -0.00154235 0.00221798 0.00156406 2650 
2283 1 -0.00338573 0.00344133 -0.0164514 0.000116 -0.0318858 -0.01081 -0.0228231 2650 
2301 1 -0.004222 0.00448068 -0.016305 4.2e-05 0 -0.011753 0 2650 
3121 1 -0.00208046 0.00511523 -0.0162007 0.000423 0.0292552 0.00121421 5.81941e-05 2650 
978 1 -0.00435788 0.00668776 -0.0162308 0.000116 0.0180122 -0.00353228 -0.00159853 2650 
3934 1 -0.001977 0.00746968 -0.016218 0.000116 0 -0.011753 0 2650 
1617 1 -0.00237046 0.00990095 -0.0158102 0.000116 0.0304013 0.00375314 0.0183235 2650 
1620 1 -0.00109862 0.01003 -0.0158615 0.000116 0.0529387 0.0514306 -0.00503745 2650 
2924 1 -0.00231951 0.0124491 -0.0161663 0.000116 -0.059039 0.0353164 0.00422158 2650 
3644 1 -0.00109076 0.012666 -0.0160865 0.000423 -0.00432743 0.00711996 -0.0325914 2650 
4231 1 -0.000565157 0.0171618 -0.0160661 0.000116 -0.0134934 0.0153003 0.0304581 2650 
1173 1 -0.00529013 0.0467189 -0.0158927 0.000116 -0.133465 0.347815 0.0527719 2650 
1357 1 -6.04607e-05 0.0538439 -0.0164459 0.000423 0.0707047 -0.134764 -0.00396134 2650 
1213 1 -0.0666328 -0.028388 -0.0152077 0.000656 -0.54423 0.0583734 2.38456 2650 
509 1 -0.0072927 -3.58881e-05 -0.0150394 0.000116 0.0208826 0.00735409 0.00387183 2650 
150 1 -0.00534953 0.00222804 -0.0153958 0.000423 -0.0551283 0.0175519 0.0264808 2650 
3239 1 -0.00442777 0.00167962 -0.0152161 0.000116 -0.0248133 -0.00752354 0.0120924 2650 
3637 1 -0.0042045 0.0027111 -0.0154485 0.000423 -0.0121297 0.0118194 -0.00377228 2650 
2399 1 -0.002418 0.00292168 -0.015541 0.000116 0 -0.011753 0 2650 
1388 1 -0.00245317 0.00529343 -0.0153024 0.000116 -0.039288 0.0021603 0.0169103 2650 
2793 1 -0.00145941 0.0050861 -0.0154909 0.000423 0.0182843 0.0982975 0.0184189 2650 
2438 1 -0.0056677 0.0069682 -0.0151617 0.000423 -0.00364828 0.010897 0.00465106 2650 
1219 1 -0.000141471 0.00798683 -0.0154125 0.000656 0.0133734 0.0239605 0.00857101 2650 
3830 1 -0.006879 0.00902168 -0.015411 4.2e-05 0 -0.011753 0 2650 
233 1 -0.00475413 0.00943842 -0.0157765 0.000423 0.0114684 -0.00558491 0.0116559 2650 
86 1 -0.00252531 0.00929918 -0.0150362 0.000116 -0.0196067 0.0126222 0.000798653 2650 
2969 1 -0.00171941 0.00886652 -0.0150928 0.000656 -0.00770999 0.0181957 -4.77754e-05 2650 
3177 1 -0.000834572 0.00877744 -0.0155815 4.2e-05 0.00917698 -0.00185525 -0.00666376 2650 
1483 1 -0.000335313 0.00908981 -0.0155697 0.000423 0.000441422 0.00568033 -0.00701639 2650 
289 1 -0.00227238 0.0097111 -0.0153897 0.000116 -0.0188061 -0.000940224 -0.0594549 2650 
938 1 -0.00104009 0.0100638 -0.0154403 0.000116 -0.00972467 -0.0045752 -0.00099221 2650 
371 1 -0.000448771 0.00998585 -0.0154988 0.000423 -0.000525259 0.00952275 -0.00581088 2650 
1104 1 -0.0667926 -0.0302352 -0.0144899 0.000656 -0.515004 0.00838548 2.37395 2650 
3095 1 -0.0669777 -0.0232471 -0.014729 0.000423 -0.539053 0.0432128 2.45125 2650 
2663 1 -0.0669431 -0.017247 -0.0148853 0.000423 -0.532931 0.466685 2.39674 2650 
2371 1 -0.0673322 -0.00997655 -0.0145393 0.000116 -0.679824 -0.00190304 3.1483 2650 
2666 1 -0.00773746 -0.00207839 -0.0143873 0.000423 0.00506312 -0.0128769 -0.0752945 2650 
2172 1 -0.00584631 -0.00158536 -0.0149782 0.000116 0.0554355 0.00150652 -0.0523356 2650 
186 1 -0.000430805 -0.0020982 -0.0145011 0.000116 -0.0548922 -0.0357269 0.0179676 2650 
1053 1 -0.007469 -0.000920317 -0.014946 0.000116 0 -0.011753 0 2650 
1022 1 -0.00317829 -0.00103652 -0.0142356 0.000423 -0.00789737 0.00635626 0.0363748 2650 
1383 1 -0.0673824 -0.000174408 -0.0142524 0.000116 -0.40574 -1.58497 2.7338 2650 
623 1 -0.00670243 0.00024096 -0.0145118 0.000116 -0.0192086 -0.00896372 0.0230222 2650 
1991 1 -0.0059707 0.000441345 -0.0149044 0.000656 -0.0195897 -0.00213105 0.00864983 2650 
676 1 -0.00352069 0.00205155 -0.0146601 0.000423 -0.0247905 0.00447638 0.0282863 2650 
220 1 -0.00355678 0.00284391 -0.0145831 4.2e-05 0.00197382 0.00663681 0.00671825 2650 
3587 1 -0.00662975 0.00335289 -0.0143151 0.000116 -0.0152422 -0.0151231 -0.00566973 2650 
3365 1 -0.002315 0.00534768 -0.014552 0.000116 0 -0.011753 0 2650 
2918 1 -0.00794703 0.00560037 -0.0144852 0.000116 0.0149777 0.0131491 0.0124233 2650 
2313 1 -0.00442712 0.00666628 -0.0147484 0.000656 0.0121795 0.0249345 0.010824 2650 
963 1 -0.00674275 0.00713779 -0.0149408 0.000116 -0.0190241 0.000952492 0.0269479 2650 
2222 1 -0.00064613 0.00780723 -0.0142131 0.000423 -0.00549102 -0.00568171 -0.00117535 2650 
581 1 -0.00562663 0.00829014 -0.0144996 0.000423 -0.000593495 -0.0101803 -0.00423903 2650 
1827 1 -0.00724407 0.00978867 -0.0147605 0.000116 0.0104858 0.011057 0.025833 2650 
1228 1 -0.00153585 0.0101766 -0.0149929 0.000423 -0.0026547 0.0243513 0.000515369 2650 
3669 1 -0.000176279 0.010381 -0.0147999 0.000423 0.00220454 -0.00743356 -0.00383523 2650 
3007 1 -0.00181282 0.0112143 -0.014994 0.000423 -0.0135196 -0.00505473 -0.0280609 2650 
568 1 -0.000213817 0.0179374 -0.0142692 0.000423 0.0646767 0.0324089 0.0265592 2650 
2643 1 -0.00261533 0.0279171 -0.0145902 0.000656 -0.0823633 0.0688822 0.0201377 2650 
352 1 -0.00477443 0.0398461 -0.0148852 0.000423 0.0736471 -0.159457 0.0441779 2650 
4245 1 -0.0069552 0.0467934 -0.0148488 0.000116 -0.108278 0.145073 0.0575558 2650 
3936 1 -0.0676089 -0.0218175 -0.0135689 4.2e-05 -0.38388 -2.19578 1.27004 2650 
2123 1 -0.0671592 -0.020185 -0.0138779 0.000423 -0.275289 -0.259193 1.3322 2650 
468 1 -0.0671537 -0.0187261 -0.0139041 0.000423 -0.061354 0.898428 0.296329 2650 
1514 1 -0.0465908 -0.00643141 -0.0136941 0.000116 -6.87507 -0.313395 -1.99098 2650 
711 1 -0.0672565 -0.00623374 -0.0133986 0.000423 -0.608699 -0.176306 3.05547 2650 
2827 1 -0.00584445 -0.00204352 -0.0141882 0.000116 -0.0201753 -0.0226203 0.0017234 2650 
269 1 -0.000154112 -0.00173326 -0.0139734 0.000423 -0.0067037 -0.0325502 -0.00931701 2650 
2332 1 -0.00473818 -0.000152612 -0.0139808 0.000423 -0.0114447 -0.00779769 0.00753018 2650 
545 1 -0.00187995 0.000712943 -0.0141728 4.2e-05 0.0164356 0.0574887 0.091312 2650 
2922 1 -0.00694086 0.00142232 -0.014173 0.000116 -0.00925852 -0.000802711 0.00675368 2650 
4165 1 -0.00517457 0.00286684 -0.0134285 0.000656 -6.3943e-05 -0.032131 0.00827285 2650 
2512 1 -0.00881903 0.00361971 -0.0135836 0.000116 0.018779 -0.0192413 0.00230208 2650 
1171 1 -0.00820281 0.00378089 -0.0137651 0.000116 0.0131753 -0.0110464 0.0150896 2650 
1032 1 -0.00720818 0.00358885 -0.0140427 0.000423 0.0299121 -0.00820922 0.0127278 2650 
2913 1 -0.00830621 0.00591356 -0.0134962 0.000116 -0.0140945 -0.0228944 -0.00540615 2650 
3950 1 -0.00711776 0.00607981 -0.0135528 0.000656 0.000588401 -0.011021 0.0254098 2650 
2322 1 -0.00871052 0.006824 -0.0134934 0.000656 -0.010444 -0.0114293 0.00249654 2650 
1288 1 -0.002467 0.00665068 -0.014044 0.000116 0 -0.011753 0 2650 
4227 1 -0.000618159 0.00631942 -0.0136523 0.000116 0.00143204 -0.0228975 -0.0290312 2650 
3515 1 -0.00759017 0.00747733 -0.0140078 0.000656 -0.00997791 -0.00948519 0.00142522 2650 
1237 1 -0.00947786 0.0084769 -0.0134695 0.000423 0.0145401 0.0144406 -0.00797436 2650 
1618 1 -0.0094703 0.00799348 -0.0137868 0.000116 -0.0183777 -0.0158905 0.00601569 2650 
4190 1 -0.0086726 0.00862381 -0.0139929 0.000423 -0.007929 0.00210755 0.00547245 2650 
1250 1 -0.00822282 0.00814747 -0.0134243 0.000423 -0.00886215 -0.00669002 0.000806173 2650 
4257 1 -0.00785223 0.00842848 -0.0139373 0.000116 0.0101268 -0.0416798 0.0036163 2650 
1769 1 -0.00696705 0.00864341 -0.0136745 0.000656 -0.0120334 -0.000961407 -0.0081542 2650 
1476 1 -0.00703766 0.0097815 -0.013435 0.000423 -0.00430855 0.00299287 4.96068e-07 2650 
1409 1 -0.00044 0.0104307 -0.013868 0.000116 0 -0.011753 0 2650 
478 1 -0.00715384 0.0151211 -0.0140978 0.000423 0.0184535 0.00116934 0.020279 2650 
694 1 -0.0024739 0.0535653 -0.0137708 0.000423 0.0939046 0.181508 -0.117107 2650 
4142 1 -0.067703 -0.0299718 -0.0127017 0.000116 -0.488084 0.394797 2.60161 2650 
222 1 -0.00290738 -0.00082706 -0.013204 0.000656 -0.0154066 -0.0201332 0.053235 2650 
3551 1 -0.00706239 0.000460657 -0.0128038 0.000423 -0.015336 0.00523015 0.00637389 2650 
4126 1 -0.00577676 0.00045624 -0.0131088 0.000116 -0.0261531 0.0084042 0.00402279 2650 
2525 1 -0.004063 0.000877683 -0.013231 4.2e-05 0 -0.011753 0 2650 
3733 1 -0.00737465 0.00177934 -0.0131636 0.000656 -0.023221 0.0173181 0.0154659 2650 
2619 1 -0.005851 0.00169368 -0.012854 0.000116 0 -0.011753 0 2650 
3880 1 -0.010277 0.00260968 -0.012913 0.000423 0 -0.011753 0 2650 
2609 1 -0.00886 0.00241768 -0.013248 0.000116 0 -0.011753 0 2650 
3917 1 -0.003984 0.00317868 -0.012703 0.000116 0 -0.011753 0 2650 
2059 1 -0.003583 0.00338768 -0.012756 0.000116 0 -0.011753 0 2650 
1192 1 -0.00580654 0.00435508 -0.0129319 0.000116 -0.0160738 0.0171838 -0.0228619 2650 
2912 1 -0.00555057 0.00535148 -0.0131989 0.000116 0.00196064 0.0151142 0.00117299 2650 
3446 1 -0.00190809 0.00510829 -0.0127764 0.000423 0.014297 -0.016402 -0.00312272 2650 
4078 1 -0.00991448 0.00587088 -0.0126609 0.000423 -0.0247982 -0.000713085 -0.00713512 2650 
1427 1 -0.002948 0.00571868 -0.013376 4.2e-05 0 -0.011753 0 2650 
104 1 -0.00325089 0.00648584 -0.0127048 4.2e-05 -0.00674979 0.0150481 0.0116551 2650 
2344 1 -0.000701786 0.00638233 -0.0130742 0.000423 0.00575909 -0.0231993 -0.0217047 2650 
3259 1 -0.0089431 0.00724117 -0.0128732 0.000116 0.00491448 -0.00683461 -0.00168833 2650 
1795 1 -0.00881592 0.00778537 -0.0129281 0.000423 -0.00611938 -0.00916123 0.00416714 2650 
450 1 -0.00595546 0.00737989 -0.0129166 0.000656 0.0112424 0.0469319 0.00733295 2650 
205 1 -0.000744 0.00843468 -0.01334 0.000116 0 -0.011753 0 2650 
3847 1 -0.00954911 0.00928414 -0.0127136 0.000656 0.00223772 0.0142639 -0.00523739 2650 
2483 1 -0.00831551 0.00885701 -0.0129587 0.000116 0.0222317 -0.00887276 -0.000700143 2650 
2092 1 -0.00484139 0.00903325 -0.0130646 0.000656 -0.0434988 0.00182259 -0.0432859 2650 
508 1 -0.0107112 0.0108387 -0.0128794 0.000116 -0.0281885 0.0711476 0.0146726 2650 
1986 1 -0.00263891 0.0103774 -0.0133576 0.000656 0.00762539 0.0149956 0.0116892 2650 
1775 1 -0.00823127 0.0112128 -0.0130591 0.000423 -7.29146e-05 -0.011186 -0.000346901 2650 
949 1 -0.00728727 0.0122145 -0.0130153 0.000116 -0.0176518 0.0277962 -0.00593252 2650 
3632 1 -0.0104821 0.0128152 -0.0128381 0.000423 -0.0152052 0.000760494 0.0188393 2650 
3106 1 -0.00940079 0.0130319 -0.0129824 0.000423 -0.042507 0.0242048 -0.0146805 2650 
1143 1 -0.000483581 0.0149924 -0.0128168 0.000423 0.0070315 0.0110531 -0.00616027 2650 
959 1 -0.00966799 0.0152968 -0.0131163 0.000116 -0.0124197 0.0522228 0.0447896 2650 
1195 1 -0.010182 0.0250543 -0.0131939 0.000116 0.0557766 0.0782116 -0.0138054 2650 
142 1 -0.00657544 0.0247681 -0.0131164 0.000423 -0.0600809 0.0373384 0.0570253 2650 
913 1 -0.00265634 0.0273115 -0.0126802 0.000423 -0.0558551 0.0664181 0.070885 2650 
1393 1 -0.0677999 -0.00693148 -0.0121738 0.000116 -0.568109 -0.195252 3.16398 2650 
4097 1 -0.0086536 -0.00245813 -0.0120778 0.000423 0.0222564 -0.0142204 -0.0225559 2650 
1763 1 -0.001143 -0.00243632 -0.012442 0.000656 0 -0.011753 0 2650 
2468 1 -0.00559444 -0.00114095 -0.0121218 0.000423 -0.0504222 0.0211365 0.000191011 2650 
3191 1 -0.00803024 -0.000212935 -0.0126055 0.000656 -0.0197381 0.00193499 -0.0014393 2650 
1422 1 -0.003881 -0.000590317 -0.012349 4.2e-05 0 -0.011753 0 2650 
1799 1 -0.00322742 0.0002142 -0.0120548 0.000423 7.10678e-05 -0.0118308 4.63239e-05 2650 
3956 1 -0.00906791 0.00115604 -0.0123249 0.000656 -0.000640959 -0.0104529 -0.000368355 2650 
541 1 -0.00693274 0.00112241 -0.0122901 4.2e-05 -0.0143735 0.00954058 0.00936495 2650 
3389 1 -0.010415 0.00167568 -0.012026 0.000116 0 -0.011753 0 2650 
3477 1 -0.00667875 0.00203625 -0.0125859 0.000116 0.0616358 -0.0139442 -0.0219299 2650 
3201 1 -0.00655319 0.00234233 -0.0119473 0.000423 -0.00608722 0.0216696 0.0089772 2650 
3645 1 -0.0073561 0.00314767 -0.0118467 0.000423 -0.0357151 -0.0039173 0.0164321 2650 
3826 1 -0.009208 0.00357068 -0.012552 0.000116 0 -0.011753 0 2650 
411 1 -0.0108136 0.00424779 -0.012094 0.000116 -0.00787832 -0.00657823 -8.20909e-05 2650 
3316 1 -0.00913666 0.00413085 -0.0126296 0.000423 -0.00545668 -0.0184265 -0.00877661 2650 
3787 1 -0.00653587 0.00425568 -0.0120666 0.000116 -0.0024271 -0.00223267 -0.0195234 2650 