ITEM: TIMESTEP
12082962
ITEM: NUMBER OF ATOMS
4263
ITEM: BOX BOUNDS ff ff ff
-0.15 0.15
-0.15 0.06
-0.15 0.15
ITEM: ATOMS id type x y z radius vx vy vz density 
3583 1 -0.00287968 -0.0572013 -0.0688239 0.000116 -0.382963 -1.68071 0.0160238 2650 
2480 1 -0.00322213 -0.0538468 -0.0687247 0.000116 3.45306 -2.87864 0.413674 2650 
902 1 -0.00319207 -0.0531888 -0.0685038 0.000423 1.44112 -0.441596 -0.0556796 2650 
812 1 -0.00335759 -0.0522989 -0.0684958 0.000423 -1.01783 -0.255705 0.0498928 2650 
482 1 -0.0113542 -0.0605587 -0.0676316 0.000423 -0.00835401 -1.22152 0.00140249 2650 
420 1 -0.0143916 -0.0594344 -0.067364 0.000116 1.59184 -1.97315 -0.34008 2650 
2690 1 -0.0166552 -0.0558121 -0.0665248 0.000423 -0.94079 -0.0711351 0.235537 2650 
1383 1 -0.0169332 -0.0480987 -0.0667704 0.000116 7.24152 1.46378 -1.83648 2650 
2672 1 -0.0170994 -0.0461319 -0.0664121 0.000423 3.43387 0.791289 -0.884135 2650 
3069 1 -0.0200265 -0.0501806 -0.065986 4.2e-05 -2.56353 -0.0566654 0.778024 2650 
3966 1 -0.0265835 -0.059294 -0.063216 0.000423 1.91159 -0.317907 -0.803861 2650 
4380 1 -0.0269303 -0.0488462 -0.0634821 4.2e-05 12.876 0.761147 -5.46224 2650 
4244 1 -0.0297968 -0.0468527 -0.0621062 0.000116 -1.18514 -4.64077 0.568598 2650 
3153 1 -0.033898 -0.0471015 -0.0599662 0.000116 -1.78717 -0.793694 1.01026 2650 
1031 1 -0.0334641 -0.045507 -0.059859 0.000423 -0.846576 -0.462539 0.473278 2650 
55 1 -0.038276 -0.0450773 -0.0569025 0.000423 -0.945417 -0.504567 0.635942 2650 
3505 1 -0.0400078 -0.0559587 -0.0561657 4.2e-05 4.30348 -0.560175 -3.06544 2650 
4305 1 -0.0393122 -0.0488039 -0.0561916 0.000423 -0.11782 -0.102611 0.0824282 2650 
3261 1 -0.0429546 -0.054679 -0.053851 0.000116 2.80453 -0.458788 -2.23705 2650 
1208 1 -0.0438496 -0.0547975 -0.0532205 4.2e-05 4.40831 0.809015 -3.63211 2650 
1008 1 -0.0459612 -0.0536487 -0.0508971 0.000423 0.182451 -0.733472 -0.164757 2650 
2091 1 -0.0451761 -0.0501239 -0.0512866 0.000656 -0.273949 -0.600852 0.241309 2650 
2460 1 -0.0463372 -0.0620879 -0.0505555 0.000423 5.6238 0.0042545 -5.15456 2650 
1377 1 -0.0473261 -0.0554899 -0.0500526 0.000116 1.25558 -0.0222636 -1.18718 2650 
2829 1 -0.0469389 -0.0477231 -0.0504159 0.000116 2.32857 -0.122934 -2.16798 2650 
1768 1 -0.0482139 -0.0489196 -0.0484419 0.000656 0.170537 0.191105 -0.169734 2650 
947 1 -0.0505443 -0.0495188 -0.0468006 0.000116 1.1848 0.0194681 -1.27957 2650 
1239 1 -0.0508745 -0.0486257 -0.0459862 0.000423 -0.183953 0.0804685 0.203507 2650 
917 1 -0.0520656 -0.0552521 -0.0446332 0.000423 1.85913 -0.023712 -2.16871 2650 
800 1 -0.0524255 -0.0558912 -0.0442099 0.000423 1.77811 0.0536374 -2.10855 2650 
1794 1 -0.0533144 -0.0561415 -0.0431339 0.000423 2.53267 0.155205 -3.13046 2650 
1012 1 -0.053975 -0.059637 -0.0423042 0.000423 0.528136 -0.610456 -0.673833 2650 
3974 1 -0.0539507 -0.0573991 -0.0423352 0.000423 1.18591 -0.432925 -1.51128 2650 
3155 1 -0.0545312 -0.0497872 -0.0420876 0.000116 3.40154 -0.703943 -4.40724 2650 
392 1 -0.0548839 -0.0614651 -0.0416269 0.000116 9.48676 0.447955 -12.508 2650 
3549 1 -0.0575726 -0.0500952 -0.0372606 0.000423 0.380907 -0.0728818 -0.588553 2650 
3692 1 -0.058949 -0.0571233 -0.0356375 0.000116 0.618264 -1.95367 -1.02269 2650 
2404 1 -0.0585138 -0.0482738 -0.0363478 0.000116 2.54005 1.97882 -4.08905 2650 
534 1 -0.0586465 -0.0474128 -0.0361332 0.000116 -0.0455866 -1.01187 0.0739901 2650 
2589 1 -0.0557227 -0.045015 -0.0332917 0.000116 1.36522 -0.984084 -6.1079 2650 
3140 1 -0.0634894 -0.0469187 -0.0267229 0.000116 0.926958 -1.00196 -2.20231 2650 
2143 1 -0.0638771 -0.0504488 -0.0249531 0.000423 -0.152972 -0.399852 0.39159 2650 
2269 1 -0.0646087 -0.059403 -0.0238901 0.000116 1.82522 -0.0360947 -4.93614 2650 
3543 1 -0.0641349 -0.0510813 -0.024283 0.000423 -0.111016 -0.787176 0.293211 2650 
1712 1 -0.0649165 -0.0472377 -0.0230406 0.000116 -0.200533 -0.492997 0.565001 2650 
2291 1 -0.0654529 -0.0606658 -0.0214695 0.000116 0.934642 0.092369 -2.8494 2650 
3013 1 -0.0658671 -0.0568123 -0.019091 0.000423 -0.137926 -0.12244 0.475865 2650 
3673 1 -0.0667812 -0.0473222 -0.0155953 0.000423 -0.0467642 1.18811 0.200251 2650 
327 1 -0.0567064 -0.0611008 -0.00532623 4.2e-05 3.0153 0.804326 -11.7737 2650 
3073 1 -0.0689182 -0.0553791 -0.00234415 4.2e-05 0.0842375 0.25669 -2.47659 2650 
1136 1 -0.0685581 -0.0469923 -0.00165523 0.000423 -0.0097794 -0.239915 0.405054 2650 
921 1 -0.068577 -0.062377 0.000472175 0.000423 -0.0712747 2.71219e-07 -10.3517 2650 
1079 1 -0.0688831 -0.0487937 0.000382938 0.000116 -0.0181342 0.795375 -3.26199 2650 
397 1 -0.0688375 -0.0480353 0.00253531 0.000116 -0.134839 1.3071 -3.66108 2650 
2337 1 -0.0684215 -0.0480463 0.00463391 0.000423 -0.410211 0.476338 -6.05692 2650 
1869 1 -0.0686999 -0.0528603 0.0059604 4.2e-05 0.145349 0.221015 1.67531 2650 
3466 1 -0.0638846 -0.0467667 0.00548979 0.000116 0.139016 -2.70775 -5.9402 2650 
2100 1 -0.0679091 -0.0550342 0.0077167 0.000656 0.152125 -0.231921 1.33874 2650 
908 1 -0.0679362 -0.0554334 0.00936358 0.000423 0.173861 -0.241066 1.25459 2650 
3812 1 -0.0681214 -0.055727 0.00985121 0.000116 0.705311 -2.08257 1.48634 2650 
3038 1 -0.0681076 -0.0554009 0.0100186 0.000116 0.42508 0.529541 0.9809 2650 
2599 1 -0.0680688 -0.0499069 0.0105676 0.000116 -1.3233 0.205597 -8.52376 2650 
1227 1 -0.0652477 -0.0615552 0.0211112 0.000423 -0.166733 -0.325782 -0.515318 2650 
2937 1 -0.0655642 -0.0510659 0.0211271 0.000116 -0.988275 0.563983 -3.06693 2650 
1601 1 -0.0651188 -0.0573222 0.0224624 0.000116 -0.207108 0.420324 -0.600408 2650 
3891 1 -0.0642502 -0.0471626 0.0239765 0.000423 -1.47522 1.14269 -3.95316 2650 
1952 1 -0.0642695 -0.0468442 0.0247883 0.000116 -2.40528 1.22752 -6.23627 2650 
4251 1 -0.0635707 -0.0555742 0.0265291 0.000116 -0.226597 0.679177 -0.542986 2650 
1634 1 -0.0629798 -0.0564113 0.0279029 0.000116 -1.07066 -1.6057 -2.41658 2650 
646 1 -0.0626115 -0.0613479 0.0287197 0.000116 0.0913603 1.37266 0.199173 2650 
4009 1 -0.0625268 -0.0562612 0.0289037 0.000116 -2.85545 3.07486 -6.17714 2650 
1760 1 -0.0614277 -0.0546644 0.0313344 4.2e-05 -2.83344 0.22218 -5.55465 2650 
1723 1 -0.0604985 -0.0595011 0.0329386 0.000116 -0.918872 0.430211 -1.68769 2650 
2234 1 -0.0585507 -0.0608444 0.0357038 0.000423 -0.22251 0.0790924 -0.364895 2650 
4026 1 -0.056474 -0.0618012 0.0394425 0.000116 0.0161167 -0.537789 0.023076 2650 
4068 1 -0.0562939 -0.0613672 0.0391657 0.000423 -0.247929 -1.04782 -0.356355 2650 
19 1 -0.0560297 -0.0575623 0.0395426 0.000423 0.103518 0.435778 0.146679 2650 
293 1 -0.0540282 -0.0614429 0.0427316 0.000116 -7.04817 1.25174 -8.91143 2650 
3786 1 -0.0496314 -0.0597932 0.0477677 0.000116 -1.81999 0.188897 -1.89099 2650 
95 1 -0.0496271 -0.0594902 0.0477722 0.000116 -6.73119 0.839717 -6.99255 2650 
744 1 -0.0479527 -0.0586497 0.0474198 0.000116 0.131433 -6.59407 -0.325304 2650 
333 1 -0.0478268 -0.0511954 0.0488241 0.000656 0.82917 -0.36967 0.812231 2650 
1095 1 -0.048519 -0.0626153 0.0490011 4.2e-05 -0.897726 0.966477 -0.888888 2650 
159 1 -0.0478382 -0.0616246 0.0491371 0.000423 0.679451 -0.523439 0.661491 2650 
1955 1 -0.0467029 -0.0619457 0.0497947 0.000116 -10.597 -0.686149 -12.2806 2650 
4334 1 -0.0459251 -0.0530763 0.0504073 0.000116 2.22185 -2.16747 2.26267 2650 
4220 1 -0.0454194 -0.0625546 0.0505171 0.000116 -5.20195 0.215512 -4.7396 2650 
3329 1 -0.0459575 -0.0616422 0.0509016 0.000423 -9.50821 0.444042 -8.54652 2650 
269 1 -0.0459208 -0.0588318 0.0509336 0.000423 -1.25314 -0.950908 -1.12981 2650 
3385 1 -0.0469073 -0.0555566 0.0504453 0.000116 -5.06144 0.466479 -4.70645 2650 
3137 1 -0.0451545 -0.0621822 0.0520201 0.000116 -4.01092 0.312628 -3.48156 2650 
208 1 -0.0450751 -0.0590807 0.0520889 0.000116 -1.23104 -1.45596 -1.06528 2650 
672 1 -0.0430141 -0.0587602 0.0531146 0.000656 -8.31015 0.69645 -6.72986 2650 
1558 1 -0.0432382 -0.0512229 0.0532297 0.000423 0.338101 1.17433 0.274638 2650 
1050 1 -0.0414126 -0.0459251 0.0550456 0.000116 -1.72686 -1.5735 -1.29917 2650 
2130 1 -0.0370044 -0.0622085 0.0571323 0.000423 -8.80583 0.0705007 -8.49202 2650 
753 1 -0.0372261 -0.0582421 0.057959 0.000116 -2.20088 0.613362 -1.41359 2650 
2954 1 -0.0356862 -0.0577716 0.0579678 0.000116 -10.6669 -4.04903 -6.3599 2650 
4319 1 -0.0350012 -0.0540701 0.0589742 0.000423 -9.96366 1.08228 -5.91335 2650 
2197 1 -0.0362398 -0.0511419 0.0586676 4.2e-05 -10.3779 3.76534 -6.41615 2650 
2098 1 -0.0348671 -0.0494213 0.0587833 0.000656 0.559695 -0.238626 0.331981 2650 
1514 1 -0.0323007 -0.0592805 0.0608415 0.000116 -1.55183 -1.70999 -0.823864 2650 
114 1 -0.0307073 -0.0462991 0.0610595 0.000656 0.265707 -0.578495 0.133626 2650 
2274 1 -0.026879 -0.0569639 0.0634235 0.000116 -1.25477 0.734826 -0.531774 2650 
4098 1 -0.0255815 -0.0538257 0.0636281 0.000423 0.786363 -0.0375401 0.316155 2650 
1716 1 -0.0242942 -0.0530192 0.0644579 0.000116 -5.57183 0.76843 -2.10003 2650 
1177 1 -0.0253048 -0.0527281 0.0640679 0.000116 -6.26154 0.417706 -2.47311 2650 
455 1 -0.0197262 -0.0512419 0.0656797 0.000423 -0.334571 0.0980952 -0.100485 2650 
715 1 -0.0149795 -0.0598608 0.066921 0.000423 -2.39453 -0.825897 -0.54988 2650 
3000 1 -0.0141071 -0.0597637 0.0671042 0.000423 -1.72386 0.16016 -0.376943 2650 
3399 1 -0.0157712 -0.0535276 0.0671303 4.2e-05 -7.76691 -1.17864 -1.82472 2650 
2574 1 -0.0116637 -0.0472826 0.0675789 0.000423 -1.45876 2.76032 -0.251775 2650 
1052 1 -0.00749441 -0.0597577 0.0684752 0.000116 -3.47295 -0.727668 -0.380104 2650 
814 1 -0.00572732 -0.0560238 0.0683386 0.000423 -4.69276 0.68099 -0.393291 2650 
2251 1 -0.00405803 -0.0529795 0.0684579 0.000423 -0.420455 -1.12596 -0.0249237 2650 
3090 1 -0.00658184 -0.0500673 0.0682615 0.000423 0.834667 0.0744952 0.0804794 2650 
630 1 -0.00684855 -0.0487976 0.0685428 0.000116 0.0535864 -0.580882 0.00535416 2650 
4128 1 -0.00579858 -0.0461007 0.0686397 0.000116 -2.16779 -1.17298 -0.266789 2650 
1602 1 -0.00396456 -0.0568516 0.06877 0.000116 -6.48005 0.579297 -0.373573 2650 
615 1 -0.0014368 -0.0555135 0.0688692 0.000116 -5.29967 0.237191 -0.110566 2650 
939 1 -0.00224023 -0.0545686 0.0688477 0.000116 -1.12987 -0.054402 -0.0367649 2650 
2819 1 -0.00147305 -0.0482076 0.0688684 0.000116 -7.94822 -1.07944 -0.170007 2650 
1404 1 -0.00415844 -0.0447122 -0.0687585 0.000116 -0.816239 0.99115 0.0493653 2650 
856 1 -0.00302287 -0.0220087 -0.0688178 0.000116 1.68949 0.592659 -0.0742128 2650 
1960 1 -0.000756019 -0.0105232 -0.06888 0.000116 -2.41304 0.245272 0.0264852 2650 
2818 1 -0.00441294 -0.00301707 -0.0687426 0.000116 -1.73759 0.0199525 0.111545 2650 
250 1 -0.00610836 -0.0419536 -0.0683055 0.000423 -0.9554 -0.416232 0.0854385 2650 
893 1 -0.00751548 -0.0310797 -0.068165 0.000423 -0.968906 -0.0568777 0.106826 2650 
1343 1 -0.00224445 -0.0293484 -0.0685413 0.000423 -0.334753 -0.355017 0.0109618 2650 
2329 1 -0.0083535 -0.0286574 -0.0680674 0.000423 -1.0333 -0.0485654 0.126811 2650 
4254 1 -0.0106709 -0.0273835 -0.0680526 0.000116 2.56822 -1.39013 -0.402707 2650 
1493 1 -0.010955 -0.0258734 -0.0680074 0.000116 1.57727 1.0356 -0.254075 2650 
2857 1 -0.00497867 -0.0235539 -0.0681646 0.000656 -0.464326 -0.152467 0.0339139 2650 
821 1 -0.00550021 -0.0221145 -0.0683571 0.000423 -0.427096 -0.0742785 0.0343654 2650 
2982 1 -0.00285903 -0.0172716 -0.0685184 0.000423 -0.800091 -0.0746516 0.033385 2650 
132 1 -0.00163179 -0.0166156 -0.0685586 0.000423 -0.768972 -0.0732605 0.0183026 2650 
3443 1 -0.00956633 -0.0158152 -0.0679075 0.000423 -1.72705 -0.405869 0.243294 2650 
2576 1 -0.00303998 -0.0160325 -0.0685106 0.000423 -0.494725 0.132937 0.0219521 2650 
3328 1 -0.00345293 -0.0150018 -0.0684911 0.000423 -0.386463 0.299801 0.0194832 2650 
3717 1 -0.00938908 -0.0106714 -0.0682412 0.000116 -3.18145 -0.342448 0.437725 2650 
3480 1 -0.00537411 -0.00628011 -0.0686742 0.000116 -3.19857 -0.145131 0.250305 2650 
2545 1 -0.00610644 -0.0047687 -0.0683056 0.000423 -2.04466 -0.0884765 0.18279 2650 
3652 1 -0.00529371 -0.0050034 -0.0683734 0.000423 -2.0215 -0.0224556 0.156511 2650 
2490 1 -0.00825362 -0.00286383 -0.0683879 0.000116 -2.77764 0.309351 0.335229 2650 
3024 1 -0.0106946 -0.00137773 -0.0680489 0.000116 -1.88708 0.0807856 0.296573 2650 
1060 1 -0.00542875 -0.000850032 -0.0686673 0.000116 -2.01723 -0.439376 0.170763 2650 
4286 1 -0.00408638 -0.00042409 -0.0684562 0.000423 -1.70353 -0.00390022 0.101689 2650 
2862 1 -0.0120214 -0.0351313 -0.0672806 0.000656 -1.48382 -0.210875 0.265122 2650 
2414 1 -0.0145775 -0.0307486 -0.0673996 4.2e-05 6.76411 -0.51972 -1.46297 2650 
4058 1 -0.00840205 -0.0273301 -0.0678277 0.000656 -0.744693 -0.193975 0.0922476 2650 
1683 1 -0.014081 -0.0120883 -0.0671169 0.000423 -2.3101 0.199522 0.484656 2650 
2224 1 -0.0120348 -0.0121699 -0.0675138 0.000423 -1.83766 -0.090481 0.327576 2650 
2667 1 -0.0125794 -0.0115181 -0.0674145 0.000423 -1.87823 -0.113149 0.350473 2650 
3356 1 -0.0122151 -0.0103956 -0.0677924 0.000116 -1.84287 -0.0373969 0.332057 2650 
1995 1 -0.0119049 -0.00937967 -0.0675368 0.000423 -1.98066 0.141759 0.349136 2650 
1500 1 -0.0116902 -0.00792652 -0.0678849 0.000116 -1.1859 -0.397489 0.20422 2650 
4108 1 -0.0138373 -0.00752033 -0.0671675 0.000423 -1.29636 0.01446 0.267064 2650 
1798 1 -0.010489 -0.00555907 -0.0677712 0.000423 -1.89865 -0.19668 0.293855 2650 
3926 1 -0.015546 -0.0025485 -0.067107 0.000116 -1.27515 -1.18758 0.295401 2650 
2788 1 -0.0113404 -0.00230762 -0.0676339 0.000423 -1.89752 -0.0418294 0.318164 2650 
3304 1 -0.0165734 -0.042993 -0.0665453 0.000423 -1.14734 -0.995098 0.285751 2650 
588 1 -0.0167789 -0.0335697 -0.0664937 0.000423 -1.17166 -0.513328 0.295653 2650 
4062 1 -0.0161195 -0.0288951 -0.0664181 0.000656 -1.57698 -0.204294 0.382731 2650 
3605 1 -0.0185156 -0.0232377 -0.066349 0.000116 -1.56827 0.0719145 0.437646 2650 
115 1 -0.0159321 -0.00910456 -0.0664633 0.000656 -2.05355 -0.133545 0.492263 2650 
4150 1 -0.0130534 -0.00717669 -0.0669999 0.000116 9.73181 -1.65599 -2.72082 2650 
3864 1 -0.0166296 -0.00400281 -0.0665312 0.000423 -2.03637 -0.0356631 0.508993 2650 
811 1 -0.0157416 -0.000433776 -0.0667469 0.000423 -1.86678 -0.00524064 0.440261 2650 
2169 1 -0.0187228 -0.0319094 -0.0662909 0.000116 0.537376 0.316938 -0.151774 2650 
2376 1 -0.0211395 -0.0315921 -0.0655602 0.000116 1.85448 -0.684987 -0.597965 2650 
4250 1 -0.020458 -0.0253802 -0.0657761 0.000116 0.977308 -0.54041 -0.303966 2650 
4372 1 -0.0192298 -0.014865 -0.0662225 4.2e-05 -1.44258 0.199998 0.418898 2650 
3282 1 -0.0192303 -0.0109384 -0.0662224 4.2e-05 -1.64355 -0.143253 0.477269 2650 
2736 1 -0.0197451 -0.00381453 -0.0659936 0.000116 -1.97859 0.390879 0.591991 2650 
3725 1 -0.0224755 -0.0197487 -0.0651925 4.2e-05 -1.33648 -0.589872 0.460762 2650 
1990 1 -0.0200584 -0.0167303 -0.0653365 0.000656 -1.57734 -0.119734 0.484244 2650 
3095 1 -0.0205896 -0.0156556 -0.0654142 0.000423 -1.30733 0.226479 0.411493 2650 
688 1 -0.0223417 -0.00122902 -0.0648367 0.000423 -1.90794 -0.0713968 0.657445 2650 
358 1 -0.0239652 -0.0169306 -0.0642543 0.000423 -0.749523 -0.36741 0.279553 2650 
2714 1 -0.0253033 -0.0130055 -0.0640684 0.000116 -2.15665 0.00932079 0.851753 2650 
2967 1 -0.021996 -0.0122098 -0.06471 0.000656 -1.86355 -0.0170332 0.633451 2650 
3743 1 -0.0231023 -0.0110264 -0.0645696 0.000423 -1.86488 0.068546 0.667234 2650 
4226 1 -0.0272314 -0.0204274 -0.063273 0.000116 -2.94174 -0.704609 1.26606 2650 
4011 1 -0.0258846 -0.010539 -0.0638358 0.000116 -1.44838 -0.164261 0.587298 2650 
1718 1 -0.0264549 -0.0083588 -0.0636016 0.000116 -2.95775 -0.183386 1.23026 2650 
4312 1 -0.0263016 -0.000719698 -0.0633338 0.000423 -2.08964 -0.0531242 0.867798 2650 
122 1 -0.027722 -0.0360101 -0.0624715 0.000656 -1.71091 -0.463141 0.759222 2650 
1901 1 -0.0270499 -0.0120073 -0.0630179 0.000423 -2.14221 0.125034 0.919526 2650 
2248 1 -0.0273082 -0.00822816 -0.0629064 0.000423 -1.09785 0.000439226 0.476585 2650 
1813 1 -0.0272964 -0.00719037 -0.0629115 0.000423 -1.26762 0.136565 0.550002 2650 
1372 1 -0.0280346 -0.00590735 -0.062586 0.000423 -1.27461 0.383195 0.570946 2650 
1852 1 -0.0276177 -0.00189837 -0.0631053 0.000116 -1.5038 -0.993499 0.658132 2650 
2001 1 -0.0299611 -0.0443177 -0.0616869 0.000423 -0.505539 -0.392963 0.245539 2650 
1045 1 -0.0301699 -0.0152393 -0.0615851 0.000423 -1.0685 -0.158936 0.523446 2650 
2336 1 -0.0293707 -0.012685 -0.0619702 0.000423 -1.57354 0.0975473 0.745779 2650 
3284 1 -0.0302606 -0.00500387 -0.0619637 4.2e-05 -2.87629 -0.108621 1.40467 2650 
2717 1 -0.0309528 -0.0299265 -0.0615382 0.000116 1.76934 -1.20964 -0.889954 2650 
2476 1 -0.030939 -0.0194935 -0.0615451 0.000116 2.43342 2.58805 -1.2233 2650 
4044 1 -0.0316195 -0.00498204 -0.0611983 0.000116 -1.84143 -0.218563 0.951418 2650 
2259 1 -0.0314509 -0.00474676 -0.0612851 0.000116 -1.91556 -0.0438015 0.983045 2650 
476 1 -0.0313872 -0.00358049 -0.0609737 0.000423 -1.87414 -0.0576952 0.964744 2650 
2928 1 -0.0320321 -0.00279341 -0.0609833 0.000116 -1.72315 -0.169788 0.9051 2650 
671 1 -0.0308838 -0.00250778 -0.0609704 0.000656 -1.63416 -0.0996734 0.826647 2650 
1185 1 -0.0325653 -0.0316872 -0.0607003 0.000116 -0.165957 -0.409337 0.0890351 2650 
3783 1 -0.033114 -0.0119718 -0.0600534 0.000423 -2.01187 -0.188282 1.10936 2650 
2641 1 -0.0316811 -0.00568655 -0.06056 0.000656 -1.89364 -0.0627608 0.990631 2650 
1669 1 -0.0327299 -0.00489538 -0.0602636 0.000423 -1.37643 -0.171586 0.747557 2650 
3204 1 -0.0330424 -0.00173523 -0.0600929 0.000423 -1.65744 0.258467 0.911352 2650 
1213 1 -0.032011 -0.00216328 -0.0603862 0.000656 -1.6032 0.081679 0.847665 2650 
2000 1 -0.0326948 -0.000918751 -0.0602827 0.000423 -1.38571 0.232213 0.751548 2650 
575 1 -0.0345086 -0.0138118 -0.059263 0.000423 -1.95978 -0.249298 1.14118 2650 
711 1 -0.0345858 -0.0129342 -0.059218 0.000423 -1.48832 -0.10855 0.869241 2650 
15 1 -0.0336688 -0.00687191 -0.0597441 0.000423 -1.40923 -0.165656 0.79417 2650 
3959 1 -0.0342952 -0.00504671 -0.0593868 0.000423 -1.32315 0.583472 0.764104 2650 
2177 1 -0.03435 -0.00393743 -0.0597085 0.000116 -1.62809 0.24724 0.936631 2650 
1550 1 -0.0329474 -0.00293315 -0.0598805 0.000656 -1.47243 -0.0680662 0.812575 2650 
1675 1 -0.0343188 -0.000888909 -0.0593731 0.000423 -1.85066 0.0609888 1.06858 2650 
2132 1 -0.0336989 -0.000435271 -0.0597272 0.000423 -1.80936 -0.0722361 1.02209 2650 
2680 1 -0.0359001 -0.033879 -0.0584305 0.000423 -1.1054 0.287575 0.679163 2650 
2327 1 -0.0353089 -0.0202466 -0.0586461 0.000423 0.392508 -0.0607495 -0.232972 2650 
3525 1 -0.035587 -0.0187044 -0.0586217 0.000423 -0.574553 0.199124 0.348789 2650 
3945 1 -0.0363392 -0.0172444 -0.0586061 4.2e-05 -3.01871 -0.314688 1.87178 2650 
3534 1 -0.0358619 -0.0150822 -0.058454 0.000423 -1.56023 -0.27731 0.957214 2650 
2664 1 -0.0349488 -0.0119663 -0.0590045 0.000423 -1.33306 -0.244793 0.789582 2650 
3741 1 -0.0361021 -0.0349826 -0.0583059 0.000423 -0.554664 -0.234616 0.343439 2650 
3269 1 -0.036721 -0.0167753 -0.0582803 0.000116 -0.834224 0.459817 0.525624 2650 
2031 1 -0.0374146 -0.00438913 -0.0574726 0.000423 -1.59597 -0.159484 1.03897 2650 
2183 1 -0.0366156 -0.000219118 -0.0572231 0.000116 1.16024 -0.0613125 0.564184 2650 
2349 1 -0.0383741 -0.0236073 -0.0568364 0.000423 -0.291709 -0.326683 0.196952 2650 
2823 1 -0.0408442 -0.0397789 -0.0554686 0.000116 -1.71299 -0.891898 1.26135 2650 
2578 1 -0.0403845 -0.00817844 -0.055426 0.000423 -1.2914 -0.150751 0.940938 2650 
2211 1 -0.0400491 -0.00621899 -0.055383 0.000656 -1.54167 -0.175331 1.11483 2650 
3656 1 -0.0398821 -0.00447431 -0.0557886 0.000423 -1.46568 -0.0814216 1.04779 2650 
1781 1 -0.0395796 -0.00254665 -0.0560036 0.000423 -1.42048 -0.13188 1.0039 2650 
3875 1 -0.039719 -0.000552319 -0.0559049 0.000423 -1.47547 -0.022585 1.04828 2650 
1598 1 -0.0385943 -0.00019364 -0.0554345 0.000116 0.609025 -0.192715 0.884995 2650 
427 1 -0.0421973 -0.0065096 -0.0544464 0.000116 -1.59266 0.356881 1.23435 2650 
2732 1 -0.043022 -0.00910062 -0.0537971 0.000116 -1.59318 0.224725 1.27408 2650 
670 1 -0.0416028 -0.00181357 -0.0542255 0.000656 -1.19245 0.0750287 0.914871 2650 
3227 1 -0.0423245 -0.000902017 -0.0539591 0.000423 -1.27948 -0.000790306 1.00359 2650 
1341 1 -0.0432173 -0.0411188 -0.0532468 0.000423 2.2448 0.0391647 -1.81938 2650 
2317 1 -0.0429845 -0.0112084 -0.053137 0.000656 -1.24462 -0.048575 1.00682 2650 
3920 1 -0.0448956 -0.0143952 -0.0522437 0.000116 -1.22604 -0.25455 1.0536 2650 
3734 1 -0.043776 -0.00912055 -0.0524868 0.000656 -1.48663 0.14055 1.2399 2650 
1075 1 -0.0444819 -0.00392931 -0.0525964 0.000116 -1.84503 0.197786 1.56038 2650 
3040 1 -0.0458363 -0.0120121 -0.0514204 0.000116 -1.15905 0.155284 1.03318 2650 
1364 1 -0.045873 -0.0184446 -0.0509766 0.000423 -1.38563 -0.116183 1.24691 2650 
2367 1 -0.0467144 -0.015019 -0.050624 0.000116 -1.09662 -0.51103 1.01193 2650 
4320 1 -0.0466554 -0.039416 -0.0502615 0.000423 -1.44064 -1.0814 1.33728 2650 
1503 1 -0.0471206 -0.0180424 -0.0502461 0.000116 -1.41097 -0.0529827 1.32321 2650 
3350 1 -0.0468621 -0.0136589 -0.0504873 0.000116 -1.23113 -0.105884 1.14273 2650 
2873 1 -0.047216 -0.00467151 -0.0497353 0.000423 -1.10736 0.16298 1.05127 2650 
2634 1 -0.0471349 -0.00110495 -0.050334 4.2e-05 -1.09353 -0.0222574 1.02403 2650 
3527 1 -0.0472756 -0.00856191 -0.0496786 0.000423 -1.15138 -0.0946437 1.09569 2650 
3904 1 -0.0483247 -0.00362224 -0.0490892 0.000116 -1.13407 0.294559 1.11641 2650 
355 1 -0.0475302 -0.000423008 -0.0494351 0.000423 -1.13572 0.000227004 1.09196 2650 
1753 1 -0.0488178 -0.000398647 -0.0485565 4.2e-05 -2.44334 -1.03676 2.76042 2650 
1433 1 -0.0487065 -0.0148826 -0.0479466 0.000656 -1.25126 -0.20618 1.27109 2650 
1408 1 -0.0493296 -0.00999971 -0.0480792 0.000116 -1.58559 0.266048 1.62683 2650 
3936 1 -0.049279 -0.00231719 -0.0478405 4.2e-05 0.984465 0.676106 -0.473095 2650 
71 1 -0.0502874 -0.0405998 -0.0466894 0.000116 6.06716 0.822502 -3.53784 2650 
3519 1 -0.0499918 -0.00260871 -0.0466049 0.000656 -1.14594 0.0215977 1.22933 2650 
691 1 -0.0509922 -0.0234085 -0.0458557 0.000423 -0.959692 -0.126486 1.06719 2650 
4016 1 -0.0505291 -0.0213057 -0.0462903 0.000116 -1.29005 -0.50353 -1.07428 2650 
1172 1 -0.0512439 -0.018281 -0.0460335 0.000116 -1.07638 -0.253328 1.19821 2650 
3582 1 -0.0509398 -0.0128409 -0.0463698 0.000116 -0.863834 -0.166407 0.948971 2650 
1278 1 -0.0509423 -0.0106903 -0.046367 0.000116 -0.547724 -0.626673 0.601771 2650 
3963 1 -0.0507603 -0.00782408 -0.0461122 0.000423 -0.496367 -0.281281 0.5464 2650 
3817 1 -0.0510823 -0.00320633 -0.0462128 0.000116 -0.706164 -0.213705 0.780573 2650 
2118 1 -0.0515089 -0.0178025 -0.0452745 0.000423 -1.07893 -0.159344 1.2275 2650 
1183 1 -0.0516941 -0.0125869 -0.0455274 0.000116 -1.11407 -0.288754 1.26497 2650 
2147 1 -0.0525253 -0.0146814 -0.0445658 0.000116 1.7874 0.371819 -2.10663 2650 
2663 1 -0.053108 -0.0190575 -0.0433877 0.000423 -1.07524 -0.21843 1.31613 2650 
528 1 -0.0530705 -0.0133406 -0.0439152 0.000116 -0.931627 0.00233628 1.12585 2650 
3878 1 -0.0527603 -0.000423762 -0.0438099 0.000423 -1.07999 -0.0115977 1.3093 2650 
3694 1 -0.0540551 -0.0336707 -0.0426975 0.000116 1.59417 1.27936 -2.01823 2650 
2765 1 -0.0533586 -0.0111245 -0.0430791 0.000423 -0.797572 0.367934 0.98789 2650 
3409 1 -0.0534214 -0.00525797 -0.0426305 0.000656 -1.12931 -0.226833 1.41516 2650 
4074 1 -0.0532629 -0.00151545 -0.0431974 0.000423 -1.14986 -0.0130754 1.41779 2650 
1046 1 -0.0526504 -0.000131859 -0.0433462 0.000116 1.52265 -0.291728 1.68844 2650 
222 1 -0.0535187 -0.0270347 -0.0421115 0.000656 -2.28163 -1.2173 2.27097 2650 
2538 1 -0.0535967 -0.0164504 -0.0424099 0.000656 -0.902145 -0.140811 1.14011 2650 
1453 1 -0.0538055 -0.00991968 -0.0425196 0.000423 -0.878863 0.426249 1.11214 2650 
4006 1 -0.0542244 -0.00696287 -0.0424822 0.000116 -0.0324345 -0.270824 0.0413995 2650 
4159 1 -0.0508603 -0.00277446 -0.0419358 4.2e-05 3.55771 -1.87873 -2.56068 2650 
3748 1 -0.0545152 -0.0448316 -0.0416057 0.000423 0.2148 -0.292441 -0.281448 2650 
3375 1 -0.0548766 -0.000637819 -0.0416363 0.000116 -1.25546 0.354616 1.65469 2650 
2813 1 -0.0564944 -0.0181621 -0.0394133 0.000116 -1.10215 -0.0174265 1.5798 2650 
1946 1 -0.0566361 -0.0132628 -0.0392094 0.000116 -1.73937 0.139665 2.51244 2650 
13 1 -0.0563311 -0.000696864 -0.039112 0.000423 -0.70184 -0.0619314 1.01083 2650 
2212 1 -0.0566971 -0.0415846 -0.0381661 0.000656 1.52614 0.0373718 -2.2561 2650 
1938 1 -0.0574084 -0.025516 -0.0380697 0.000116 0.751297 1.74839 -1.13294 2650 
1730 1 -0.0571334 -0.0199489 -0.0384811 0.000116 -1.63269 -0.748783 2.42408 2650 
3011 1 -0.00130988 -0.00565498 -0.0382794 0.000423 -0.224291 -0.253124 -5.42976 2650 
3479 1 -0.0573886 -0.00095884 -0.0380995 0.000116 -0.588226 0.0386957 0.886035 2650 
762 1 -0.0577887 -0.00455487 -0.0376254 4.2e-05 0.741326 -0.435492 -1.1386 2650 
429 1 -0.0576955 -0.00161005 -0.0376138 0.000116 0.0619577 -0.471032 0.00938811 2650 
725 1 -0.0584132 -0.00726761 -0.0365092 0.000116 -1.07053 0.0637812 1.71281 2650 
2790 1 -0.0583684 -0.0358927 -0.036001 0.000423 0.016264 -0.524598 -0.0263688 2650 
1606 1 -0.0587143 -0.0251563 -0.036023 0.000116 -0.159234 1.52243 0.259538 2650 
1325 1 -0.0580617 -0.00898994 -0.036056 0.000656 -1.02018 -0.00502474 1.64282 2650 
1107 1 -0.0585912 -0.0449356 -0.035189 0.000656 0.327271 0.489188 -0.54492 2650 
2112 1 -0.0590647 -0.0440158 -0.0348469 0.000423 -0.0385855 -0.325375 0.0654015 2650 
1886 1 -0.0587124 -0.00835681 -0.0354373 0.000423 -0.976241 0.107044 1.61743 2650 
2560 1 -0.0592087 -0.011195 -0.0346017 0.000423 -0.931045 -0.255844 1.59316 2650 
3319 1 -0.0596106 -0.00418154 -0.0339046 0.000423 -0.986643 0.104179 1.7347 2650 
1646 1 -0.0599234 -0.0036886 -0.0338789 4.2e-05 0.0111628 -2.95682 -1.19807 2650 
3331 1 -0.0603238 -0.0447979 -0.0326188 0.000423 1.40296 -1.44246 -2.59457 2650 
491 1 -0.0610067 -0.000582611 -0.031323 0.000423 -0.691724 -0.0172511 1.34725 2650 
4217 1 -0.0602841 -0.0324029 -0.0326922 0.000423 -0.621505 -0.0818813 1.14604 2650 
1612 1 -0.0604472 -0.015 -0.0330327 0.000116 -0.942069 -0.499498 1.72391 2650 
3233 1 -0.0604258 -0.0133865 -0.0323941 0.000423 -1.30529 -0.0790135 2.5438 2650 
2139 1 -0.0604207 -0.00272634 -0.032439 0.000423 -0.641094 -0.152877 1.1941 2650 
2247 1 -0.0607457 -0.0314661 -0.0318263 0.000423 -0.287575 0.498376 0.548887 2650 
872 1 -0.0608065 -0.0138082 -0.0321003 4.2e-05 0.422183 -0.454303 3.54844 2650 
1510 1 -0.0604554 -0.0143632 -0.0322977 0.000116 2.65245 -6.81338 2.04179 2650 
1462 1 -0.0604811 -0.00839932 -0.0323263 0.000423 -0.590491 -0.10678 1.10478 2650 
822 1 -0.0606862 -0.00180452 -0.0319395 0.000423 -0.618265 -0.0715267 1.17472 2650 
1020 1 -0.0606181 -0.000956405 -0.0320686 0.000423 -0.71989 0.00669057 1.36078 2650 
1207 1 -0.0614853 -0.0336262 -0.0312213 4.2e-05 0.25761 -0.944853 -0.507321 2650 
2086 1 -0.0615415 -0.0155795 -0.0311103 4.2e-05 -1.39305 0.0586661 2.75569 2650 
871 1 -0.0621753 -0.0197119 -0.0298236 4.2e-05 0.0487331 -0.113217 -0.101597 2650 
91 1 -0.0622987 -0.0183017 -0.029392 0.000116 -0.948676 -0.145253 2.01079 2650 
1757 1 -0.0628215 -0.0249085 -0.0284371 4.2e-05 -0.888183 -1.64567 1.96212 2650 
2018 1 -0.0625115 -0.04029 -0.0282004 0.000423 0.230208 0.197358 -0.5103 2650 
3619 1 -0.0629831 -0.0347589 -0.0280774 4.2e-05 0.0520811 1.02297 -0.116828 2650 
3636 1 -0.0625314 -0.0136905 -0.0281562 0.000423 -0.295321 0.262729 0.655872 2650 
733 1 -0.0630378 -0.00553815 -0.0277715 0.000116 0.446085 -0.522616 -1.01256 2650 
3508 1 -0.0634939 -0.00465221 -0.0268888 4.2e-05 1.84328 -2.79906 -4.75147 2650 
2340 1 -0.0637484 -0.0391313 -0.0252802 0.000423 -0.12165 0.247615 0.306762 2650 
1968 1 -0.0640367 -0.0206682 -0.023921 0.000116 2.35326 -0.942826 -1.03491 2650 
4373 1 -0.0653024 -0.0326222 -0.0221541 4.2e-05 -0.290474 -0.399242 0.856213 2650 
1805 1 -0.0651148 -0.0442764 -0.0215175 0.000423 -0.281822 -0.0637674 0.85283 2650 
4297 1 -0.0651454 -0.00164582 -0.0214249 0.000423 -0.452684 -0.0386437 1.37645 2650 
4213 1 -0.0656184 -0.00287024 -0.0199292 0.000423 -0.421174 -0.117621 1.38675 2650 
1180 1 -0.0662524 -0.0216926 -0.0188585 0.000116 -0.292039 0.18554 1.02597 2650 
152 1 -0.0663331 -0.0136359 -0.0174032 0.000423 -0.502859 -0.227208 1.91667 2650 
2396 1 -0.0664852 -0.00786722 -0.0180207 0.000116 0.0975943 -0.531832 -0.360062 2650 
648 1 -0.000335108 -0.0014808 -0.0167922 0.000116 -0.0223048 -0.0463898 -0.00146523 2650 
606 1 -0.000183 0.000783694 -0.016592 0.000116 0 -0.011753 0 2650 
3503 1 -0.000687504 0.00316521 -0.0166032 4.2e-05 -0.0351311 0.0114577 -0.000362163 2650 
2064 1 -0.0668516 -0.0339432 -0.0166101 0.000116 1.7732 1.2885 -7.1367 2650 
3348 1 -0.0668644 -0.0315595 -0.0165583 0.000116 0.50715 -0.624034 -2.04794 2650 
999 1 -0.000280095 -0.000123199 -0.0162652 0.000656 -0.00317469 -0.0118235 0.0111703 2650 
2301 1 -0.00438924 0.00309231 -0.0158571 4.2e-05 -0.00116259 -0.0070103 0.00459775 2650 
4227 1 -0.000139695 0.00286133 -0.0161245 0.000116 0.00593372 -0.017543 0.0130313 2650 
2013 1 -0.00306647 0.00319563 -0.0157999 0.000423 -0.00154235 0.00221798 0.00156406 2650 
2283 1 -0.00353428 0.00490793 -0.0163454 0.000116 -0.00010552 0.00956354 0.000789399 2650 
2520 1 -6.98468e-05 0.00491431 -0.016312 4.2e-05 0.00318265 0.000380138 0.00682554 2650 
3934 1 -0.001977 0.00554569 -0.016218 0.000116 0 -0.011753 0 2650 
978 1 -0.00140925 0.00610952 -0.0164925 0.000116 0.0180122 -0.00353228 -0.00159853 2650 
3051 1 -0.00284181 0.00790618 -0.0165559 0.000116 -0.0677691 -0.171446 -0.0100126 2650 
2726 1 -0.000603619 0.00941885 -0.0163807 0.000116 0.0026577 0.00672332 0.0197797 2650 
3150 1 -0.00277067 0.00982274 -0.016423 0.000116 -0.00853688 -0.00507509 0.0147387 2650 
938 1 -0.00157333 0.00995233 -0.0162664 0.000116 -0.00119823 0.000558801 -0.00633771 2650 
1483 1 -0.000507131 0.0108544 -0.016308 0.000423 -0.000431738 0.0094693 0.00416488 2650 
302 1 -0.00304203 0.0111235 -0.0161595 0.000116 -0.0347922 0.0241041 0.0152166 2650 
3007 1 -0.00321573 0.0119475 -0.0160968 0.000423 -0.00754521 0.0118776 -0.00214285 2650 
371 1 -0.000751245 0.0122725 -0.0164402 0.000423 -0.00486135 0.00835155 -0.00501272 2650 
188 1 -0.00370514 0.014374 -0.0159758 0.000116 -0.0148612 0.0228045 0.00418427 2650 
93 1 -0.00281255 0.0221175 -0.0165531 0.000116 0.0714693 0.0500535 -0.0191255 2650 