ITEM: TIMESTEP
8940744
ITEM: NUMBER OF ATOMS
4315
ITEM: BOX BOUNDS ff ff ff
-0.15 0.15
-0.15 0.06
-0.15 0.15
ITEM: ATOMS id type x y z radius vx vy vz density 
2820 1 -0.000712333 -0.0460273 -0.0688804 0.000116 1.58129 0.907079 -0.0163531 2650 
2081 1 -0.00355721 -0.0494493 -0.0686566 4.2e-05 -5.10241 -0.443377 0.0669715 2650 
3974 1 -0.0133142 -0.0596439 -0.0672732 0.000423 0.610667 -0.117583 -0.120859 2650 
3192 1 -0.0133805 -0.0563899 -0.0670236 0.000656 -2.65477 -0.64628 0.529995 2650 
4036 1 -0.020807 -0.0541022 -0.0656665 0.000116 0.787213 -0.076829 -0.249436 2650 
3688 1 -0.0224476 -0.0568364 -0.065124 0.000116 -3.23791 0.230759 1.11607 2650 
1050 1 -0.0257914 -0.0608977 -0.0638735 0.000116 -1.82177 1.48903 0.735611 2650 
3038 1 -0.027928 -0.0477298 -0.0629687 0.000116 4.79463 1.22685 -2.12652 2650 
1081 1 -0.0305193 -0.0518632 -0.0617543 0.000116 -0.71734 -0.212731 0.354514 2650 
1856 1 -0.0322836 -0.0559807 -0.0608506 0.000116 0.336577 0.126844 -0.178567 2650 
2527 1 -0.0154965 -0.0602247 -0.0604458 4.2e-05 2.45262 -3.67016 -3.93177 2650 
2201 1 -0.0360188 -0.0574637 -0.0580849 0.000656 1.94968 -0.267046 -1.20901 2650 
935 1 -0.0361563 -0.0525024 -0.0582724 0.000423 1.23451 -0.410997 -0.765973 2650 
1290 1 -0.0391937 -0.059279 -0.0566469 0.000116 1.25337 0.199036 -0.867204 2650 
758 1 -0.0382877 -0.0623867 -0.0558811 0.000116 -0.301664 -0.532972 0.249603 2650 
1471 1 -0.0413253 -0.0622879 -0.0547282 0.000423 3.49962 -0.089311 -2.64256 2650 
3619 1 -0.0418759 -0.0502561 -0.054787 4.2e-05 1.26064 0.493902 -0.963553 2650 
854 1 -0.0440442 -0.0591572 -0.0529635 0.000116 1.08875 -0.579116 -0.905397 2650 
3260 1 -0.0422352 -0.0603221 -0.0514183 0.000116 2.11265 0.455285 -5.28932 2650 
51 1 -0.0492934 -0.045932 -0.0476771 0.000423 0.583307 -0.0515591 -0.603082 2650 
3000 1 -0.0540865 -0.062071 -0.0421557 0.000423 -0.401721 0.127581 0.336276 2650 
4139 1 -0.0584106 -0.0582597 -0.0365134 0.000116 0.6473 -0.221616 -1.03549 2650 
2829 1 -0.0588411 -0.0602768 -0.0358155 0.000116 0.280754 0.460903 -0.461249 2650 
3391 1 -0.0607021 -0.0576222 -0.0327179 4.2e-05 2.9807 -1.65306 -5.53016 2650 
1316 1 -0.0626619 -0.0525156 -0.0287871 4.2e-05 1.70257 0.848487 -3.70604 2650 
3139 1 -0.0631505 -0.0603139 -0.0275143 0.000116 1.08819 -1.27774 -2.49759 2650 
1185 1 -0.0635856 -0.057669 -0.0264934 0.000116 3.90478 0.721496 -9.37168 2650 
3586 1 -0.0652378 -0.0528142 -0.0221144 0.000116 0.698607 0.483107 -2.0609 2650 
390 1 -0.0660636 -0.0477829 -0.0195096 0.000116 0.0668442 0.943889 -0.226348 2650 
518 1 -0.0663372 -0.0626724 -0.0185583 0.000116 2.34191 0.0118361 -8.37121 2650 
3088 1 -0.0659432 -0.0607769 -0.0188271 0.000423 1.50396 1.23588 -5.2678 2650 
3753 1 -0.0659295 -0.0589355 -0.0188751 0.000423 1.28765 2.27251 -4.49765 2650 
4376 1 -0.0555681 -0.061949 -0.0127296 4.2e-05 1.22128 -0.0927878 -12.4786 2650 
1816 1 -0.0680245 -0.0593939 -0.0108486 0.000116 0.0665712 -0.05734 -0.417424 2650 
3054 1 -0.0680267 -0.0537467 -0.0108346 0.000116 -0.121579 -1.07126 0.763355 2650 
2072 1 -0.0684101 -0.0603415 -0.00657777 0.000116 0.495906 0.690431 -2.58939 2650 
2848 1 -0.0689439 -0.053361 0.00139723 4.2e-05 -0.00467941 0.030113 -0.230897 2650 
646 1 -0.0684703 -0.0610737 0.00754037 0.000116 -1.55863 0.0912334 -14.153 2650 
1231 1 -0.0680691 -0.0516548 0.00833943 0.000423 0.1384 -0.186568 1.12966 2650 
3090 1 -0.0678848 -0.0590137 0.00972645 0.000423 0.143215 0.0607588 0.999559 2650 
1377 1 -0.0675705 -0.0476069 0.0133886 0.000116 -0.169955 1.0946 -0.857737 2650 
843 1 -0.0611568 -0.0501177 0.0316996 0.000116 0.252361 -0.0583684 0.486869 2650 
3372 1 -0.0602137 -0.0522521 0.0334564 0.000116 -1.52869 -0.835921 -2.75128 2650 
239 1 -0.0595708 -0.05372 0.0339746 0.000423 0.743212 0.399863 1.30314 2650 
2833 1 -0.0589252 -0.0611071 0.035677 0.000116 -0.349354 -1.08548 -0.577003 2650 
1278 1 -0.0586846 -0.0538552 0.0360715 0.000116 -4.84765 0.522319 -7.88663 2650 
849 1 -0.0577978 -0.0525427 0.0374758 0.000116 -0.270417 -1.28706 -0.417055 2650 
1784 1 -0.0555103 -0.0558424 0.0402685 0.000423 0.593585 -0.226858 0.818261 2650 
2386 1 -0.0546276 -0.0505654 0.0419624 0.000116 -0.573692 -1.80703 -0.746846 2650 
394 1 -0.0541005 -0.050887 0.0426399 0.000116 0.916023 -0.459633 1.16223 2650 
3891 1 -0.0505739 -0.0605336 0.0463166 0.000423 0.161973 -0.657313 0.176862 2650 
3549 1 -0.0500742 -0.0593068 0.0468564 0.000423 -0.892888 0.078626 -0.954205 2650 
4025 1 -0.050722 -0.0542869 0.046608 0.000116 -1.20432 -0.556814 -1.31062 2650 
578 1 -0.0497613 -0.0475874 0.0471897 0.000423 -1.59819 0.152006 -1.65453 2650 
2367 1 -0.0495366 -0.047182 0.0476484 0.000116 -0.362374 1.99249 -1.97344 2650 
2166 1 -0.0452089 -0.0554224 0.0519729 0.000116 -3.4582 -1.03605 -3.00813 2650 
1030 1 -0.0416723 -0.0491411 0.0544644 0.000423 1.52294 0.061184 1.16525 2650 
3566 1 -0.0408684 -0.0494839 0.0554508 0.000116 -1.56725 -0.81954 -1.1551 2650 
800 1 -0.0375325 -0.0601514 0.0573957 0.000423 2.04025 -0.802755 1.33417 2650 
3181 1 -0.0190872 -0.0623255 0.0638922 4.2e-05 -9.66926 0.38844 -8.27041 2650 
4345 1 -0.0236969 -0.0562028 0.0646798 0.000116 -0.315842 0.506552 -0.115716 2650 
3933 1 -0.0253871 -0.0519996 0.0640353 0.000116 0.810299 -0.0146105 0.321247 2650 
19 1 -0.018052 -0.0467208 0.0661598 0.000423 -7.24708 1.32558 -1.9774 2650 
1903 1 -0.0137547 -0.0565515 0.0671845 0.000423 -2.80532 -0.558444 -0.574336 2650 
1537 1 -0.0141268 -0.0554833 0.0674955 4.2e-05 -0.531195 -2.22003 -0.111179 2650 
2083 1 -0.00947751 -0.0515803 0.0681075 4.2e-05 -6.50098 -2.0455 -3.43702 2650 
1865 1 -0.00648368 -0.0487209 0.0686525 4.2e-05 5.08814 0.828943 0.480535 2650 
2064 1 -0.00044998 -0.0604909 0.0688827 0.000116 -9.91668 0.833825 -0.0647813 2650 
4353 1 -0.00254439 -0.0324557 -0.0688371 0.000116 -3.73785 -0.225365 0.13816 2650 
2192 1 -0.0012898 -0.0279317 -0.068946 4.2e-05 5.95094 -0.710213 -0.111327 2650 
1320 1 -0.00443805 -0.0210241 -0.0688178 4.2e-05 -3.32916 3.66724 2.83772 2650 
2148 1 -0.00359783 -0.00735176 -0.0687901 0.000116 -0.218445 -1.13565 0.011425 2650 
1419 1 -0.00418213 -0.0039727 -0.0687571 0.000116 -2.6476 0.920384 0.161039 2650 
1760 1 -0.00185718 -0.00319783 -0.068933 4.2e-05 -2.26114 0.222203 0.0609193 2650 
3585 1 -0.00149188 -0.00343053 -0.068868 0.000116 -2.31676 0.0684283 0.0501878 2650 
3945 1 -0.0049081 -0.00187155 -0.0687831 4.2e-05 6.98682 -1.18762 -0.498552 2650 
1056 1 -0.000222755 -0.000372255 -0.0688838 0.000116 -0.16146 -0.0211368 0.000522125 2650 
1136 1 -0.00881613 -0.0218571 -0.068009 0.000423 -0.888931 -0.248461 0.115234 2650 
2028 1 -0.00801046 -0.0126084 -0.0681086 0.000423 -1.94677 -0.00512654 0.228966 2650 
1510 1 -0.00970685 -0.0102167 -0.0681968 0.000116 -2.13146 -3.00135 0.303384 2650 
1638 1 -0.00791509 -0.00706226 -0.0684279 0.000116 -0.597734 0.254637 0.0691401 2650 
1466 1 -0.000271116 -0.00635893 -0.0685775 0.000423 -2.24416 0.0275128 0.00887211 2650 
1443 1 -0.00192667 -0.00498642 -0.068551 0.000423 -1.64004 0.844252 0.0460945 2650 
2563 1 -0.00708865 -0.00400744 -0.0682107 0.000423 -2.1543 -0.153546 0.223881 2650 
1447 1 -0.00218744 -0.00393599 -0.0685432 0.000423 -2.263 0.0632912 0.0722198 2650 
1046 1 -0.0103074 -0.00230613 -0.0681086 0.000116 -0.803931 0.47084 0.121665 2650 
2691 1 -0.00859434 -0.00220031 -0.0680374 0.000423 -1.52428 -0.0717054 0.192544 2650 
2514 1 -0.0061176 -0.0020687 -0.0686119 0.000116 -2.79034 0.680675 0.248794 2650 
2626 1 -0.00543748 -0.00221134 -0.0686692 0.000116 -2.28769 0.277038 0.181148 2650 
1436 1 -0.000310283 -0.00198854 -0.0683455 0.000656 -2.20273 0.0616741 0.0100002 2650 
34 1 -0.00347438 -0.00153889 -0.06849 0.000423 -2.05861 -0.0261479 0.10443 2650 
245 1 -0.00885471 -0.000498657 -0.068004 0.000423 -1.75611 -0.0225738 0.228661 2650 
1249 1 -0.00804057 -0.000756139 -0.0681051 0.000423 -1.76442 -0.0732612 0.20831 2650 
1336 1 -0.010063 -0.0268351 -0.0678357 0.000423 -1.40982 -0.196483 0.209138 2650 
50 1 -0.0121687 -0.0159356 -0.0674898 0.000423 2.59812 0.669993 -0.468451 2650 
827 1 -0.0125252 -0.0147189 -0.0677358 0.000116 -3.91195 -2.59808 0.723371 2650 
4084 1 -0.0125486 -0.0118241 -0.0674202 0.000423 -2.02771 0.559603 0.377408 2650 
42 1 -0.0124042 -0.000949164 -0.0674469 0.000423 -0.390281 0.779721 0.0717767 2650 
1849 1 -0.0177317 -0.0370989 -0.0665628 0.000116 -1.62529 -1.31008 0.432961 2650 
3615 1 -0.0185729 -0.0303206 -0.0664098 4.2e-05 4.92649 -0.671466 -1.3778 2650 
2779 1 -0.0151849 -0.00691004 -0.0668758 0.000423 -1.90957 -0.248223 0.433591 2650 
555 1 -0.0137107 -0.00474848 -0.0669568 0.000656 -1.37169 0.0727588 0.28088 2650 
739 1 -0.021087 -0.0288504 -0.0655771 0.000116 -2.47819 -0.32504 0.796889 2650 
3037 1 -0.0205945 -0.0263012 -0.0657335 0.000116 -3.28606 -0.759969 1.02953 2650 
3840 1 -0.0172504 -0.026355 -0.0661334 0.000656 -1.78173 0.188234 0.464752 2650 
1572 1 -0.0184985 -0.0250277 -0.066036 0.000423 -2.71927 0.1728 0.761741 2650 
3425 1 -0.0190671 -0.0116926 -0.0658741 0.000423 -2.39355 0.44213 0.692808 2650 
3219 1 -0.0223572 -0.0201685 -0.0648314 0.000423 0.987637 0.0527061 -0.340587 2650 
56 1 -0.0219726 -0.013384 -0.0649627 0.000423 -2.55851 0.0833988 0.865376 2650 
3143 1 -0.0224325 -0.0107511 -0.0651292 0.000116 -2.27523 -0.463994 0.783661 2650 
1206 1 -0.025253 -0.032941 -0.0641677 4.2e-05 3.89056 -0.596909 -1.53112 2650 
1323 1 -0.0230723 -0.0260678 -0.064334 0.000656 0.185765 -0.430892 -0.0666213 2650 
3426 1 -0.0240433 -0.0178041 -0.0642251 0.000423 -0.0617925 0.568307 0.0231327 2650 
229 1 -0.0234153 -0.0118031 -0.06421 0.000656 -2.54905 0.131788 0.929556 2650 
2966 1 -0.0236305 -0.00958855 -0.0641311 0.000656 -2.37759 -0.234642 0.876074 2650 
223 1 -0.0224961 -0.00152512 -0.0645378 0.000656 -1.85641 -0.07037 0.647093 2650 
1987 1 -0.0253275 -0.0183849 -0.06348 0.000656 -0.209022 0.241166 0.0833965 2650 
306 1 -0.0268959 -0.00959186 -0.0634163 0.000116 -0.596016 -1.53405 0.25278 2650 
3140 1 -0.027564 -0.0420387 -0.0631544 0.000116 1.32292 -0.245585 -0.888358 2650 
1202 1 -0.00234104 -0.0223284 -0.0626762 4.2e-05 12.8502 -1.33916 4.37934 2650 
1296 1 -0.0282858 -0.0179451 -0.0628087 0.000116 -1.21839 -0.332555 0.548698 2650 
322 1 -0.028517 -0.0163265 -0.0627853 4.2e-05 1.36748 2.06072 -0.62111 2650 
1135 1 -0.0284549 -0.00475345 -0.0623961 0.000423 0.492158 0.457691 -0.224442 2650 
902 1 -0.0297121 -0.040383 -0.0618073 0.000423 -1.65534 -0.214462 0.795758 2650 
3013 1 -0.0298267 -0.0349416 -0.061752 0.000423 -0.64331 -1.36774 0.310724 2650 
3785 1 -0.0307573 -0.00233206 -0.0616361 0.000116 0.779998 4.17023 -0.389229 2650 
3946 1 -0.0304999 -0.00205642 -0.0618463 4.2e-05 -2.78513 -0.37844 1.3735 2650 
693 1 -0.0293814 -0.000828519 -0.0619652 0.000423 1.07877 0.988363 -0.51151 2650 
577 1 -0.0313384 -0.0274989 -0.0609988 0.000423 -1.39655 -0.469803 0.717485 2650 
1107 1 -0.0301671 -0.0252624 -0.0613281 0.000656 -0.839061 -0.486457 0.412732 2650 
1961 1 -0.0315396 -0.0160309 -0.0612395 0.000116 -3.03168 -0.355089 1.56138 2650 
817 1 -0.031185 -0.0135439 -0.0610773 0.000423 -1.38247 0.10446 0.705864 2650 
3514 1 -0.031435 -0.0246756 -0.060688 0.000656 -0.89006 -0.0333187 0.46103 2650 
1312 1 -0.0320098 -0.00938148 -0.0606731 4.2e-05 0.304485 -1.67984 -0.74363 2650 
3649 1 -0.0330372 -0.000660461 -0.0600957 0.000423 -1.82221 -0.28702 1.00175 2650 
3399 1 -0.0340592 -0.031345 -0.0599598 4.2e-05 -0.471978 0.321147 0.2681 2650 
2246 1 -0.03413 -0.00771053 -0.0594818 0.000423 -1.31922 -0.135988 0.756952 2650 
1593 1 -0.0348387 -0.027774 -0.0590696 0.000423 -1.9911 -0.0844216 1.17433 2650 
1218 1 -0.0356085 -0.0271932 -0.0583373 0.000656 -2.0259 -0.134456 1.23659 2650 
2098 1 -0.0370871 -0.0325956 -0.0574087 0.000656 -2.20717 0.165548 1.42587 2650 
3096 1 -0.0374816 -0.0284688 -0.0574289 0.000423 -1.17363 -0.391163 0.765982 2650 
2238 1 -0.0393392 -0.000582793 -0.0561727 0.000423 -1.06173 -0.0423416 0.743556 2650 
1055 1 -0.0418559 -0.00745096 -0.0547093 0.000116 -1.5468 -0.101946 1.18339 2650 
295 1 -0.041439 -0.00154622 -0.0550257 0.000116 -0.881371 0.271891 0.663747 2650 
3692 1 -0.0428688 -0.0224664 -0.0539193 0.000116 -1.07313 -0.0998309 0.853196 2650 
2116 1 -0.0420215 -0.0166462 -0.0541954 0.000423 -2.01808 0.232888 1.56476 2650 
2605 1 -0.0431913 -0.0119251 -0.0536613 0.000116 -2.77857 -0.288126 2.23644 2650 
163 1 -0.041812 -0.00422898 -0.0543572 0.000423 -1.38938 0.394935 1.06872 2650 
1606 1 -0.0424312 -0.00209411 -0.0542643 0.000116 -1.34233 0.219319 1.04962 2650 
21 1 -0.0426005 -0.000622493 -0.0537415 0.000423 -1.40541 -0.0362509 1.11406 2650 
1461 1 -0.0419288 -0.000627853 -0.0542671 0.000423 -1.41686 -0.0394652 1.09472 2650 
2019 1 -0.0435583 -0.0197192 -0.0529682 0.000423 -2.07398 -0.348867 1.70554 2650 
3947 1 -0.043067 -0.0159401 -0.0530701 0.000656 -2.06906 -0.0258656 1.67907 2650 
82 1 -0.0433511 -0.0106206 -0.0535323 0.000116 -1.4102 0.0999516 1.142 2650 
2132 1 -0.0439564 -0.0184628 -0.0526383 0.000423 1.71973 -0.125931 -1.43609 2650 
596 1 -0.0437745 -0.0135953 -0.0527896 0.000423 -1.99952 0.454888 1.65805 2650 
2827 1 -0.0455246 -0.00520162 -0.0516965 0.000116 -2.3999 -0.114195 2.11338 2650 
197 1 -0.0457019 -0.00415092 -0.0515399 0.000116 1.30107 0.657065 -1.15369 2650 
3633 1 -0.0470549 -0.0269854 -0.0498878 0.000423 -1.8525 0.334569 1.7473 2650 
3887 1 -0.0485834 -0.0409361 -0.0482935 0.000423 0.519199 0.18386 0.0232426 2650 
2574 1 -0.0482596 -0.0329259 -0.0487233 0.000423 -1.37679 -0.120041 1.36368 2650 
3729 1 -0.0479934 -0.0290893 -0.0486605 0.000656 -1.60728 0.315338 1.58524 2650 
1170 1 -0.0490075 -0.0254344 -0.0484075 0.000116 -1.63552 0.68958 1.65579 2650 
443 1 -0.048049 -0.0145956 -0.0486056 0.000656 -2.02174 -0.26242 1.99859 2650 
1751 1 -0.0495342 -0.00029517 -0.0479747 4.2e-05 -0.490383 1.99072 0.506323 2650 
2530 1 -0.0466344 -0.0138544 -0.047297 0.000656 -3.52562 -0.563877 0.633139 2650 
186 1 -0.050623 -0.00611091 -0.0467155 0.000116 -2.17917 -0.142725 2.36144 2650 
2038 1 -0.0510337 -0.0219966 -0.0462665 0.000116 2.05351 -0.338242 -2.26509 2650 
3084 1 -0.0510704 -0.0358964 -0.0454205 0.000656 -1.47786 -0.179015 1.66169 2650 
2460 1 -0.0511304 -0.0297962 -0.0457015 0.000423 -1.12151 -0.373426 1.25473 2650 
3978 1 -0.0523332 -0.0339054 -0.0443191 0.000423 -1.34226 0.0629209 1.58497 2650 
3314 1 -0.0517742 -0.00161143 -0.0449709 0.000423 -0.808712 -0.0946771 0.931056 2650 
3079 1 -0.052266 -0.0319549 -0.0440394 0.000656 -1.45185 0.0142983 1.72306 2650 
419 1 -0.0531979 -0.00980714 -0.0437608 0.000116 -1.92464 -0.161854 2.33969 2650 
4210 1 -0.0532588 -0.0418738 -0.0431953 0.000423 -0.135742 -1.04159 0.331299 2650 
4377 1 -0.052862 -0.0389303 -0.042796 4.2e-05 -2.03336 -5.51719 2.92175 2650 
681 1 -0.0542657 -0.0343473 -0.0419306 0.000423 -0.747884 0.243903 0.967896 2650 
2183 1 -0.0546116 -0.0310171 -0.0419833 0.000116 -1.23355 -0.392479 1.6046 2650 
1914 1 -0.0543496 -0.0265859 -0.0418219 0.000423 -0.2421 -0.0615616 0.314621 2650 
29 1 -0.0557414 -0.0160811 -0.039948 0.000423 -0.659024 1.08105 0.919568 2650 
3058 1 -0.0128132 -0.00410947 -0.0399906 0.000116 -1.94557 -0.102114 -6.09565 2650 
2232 1 -0.0569258 -0.037445 -0.0382414 0.000423 -0.638196 0.185016 0.950012 2650 
3348 1 -0.057166 -0.0349777 -0.0383065 0.000116 -0.236617 1.73995 0.505211 2650 
3089 1 -0.0567628 -0.0206917 -0.038483 0.000423 -1.41761 -0.325593 2.09077 2650 
3198 1 -0.0580864 -0.0297922 -0.0364543 0.000423 -0.1242 0.226537 0.1979 2650 
3393 1 -0.0583625 -0.0121752 -0.0367291 4.2e-05 -1.66408 -0.338903 2.64421 2650 
3378 1 -0.0594517 -0.00727896 -0.0347925 0.000116 -0.595238 0.249645 1.01711 2650 
1417 1 -0.0595531 -0.0302556 -0.0346187 0.000116 4.76069 -6.94985 -8.18948 2650 
631 1 -0.0596078 -0.0102425 -0.0345243 0.000116 -1.59961 -0.206943 2.7618 2650 
1076 1 -0.0602014 -0.0100477 -0.0334785 0.000116 -1.55711 -0.195121 2.80001 2650 
3375 1 -0.0598917 -0.00706265 -0.0340296 0.000116 2.40081 4.64211 -4.2254 2650 
3640 1 -0.0300323 -0.00947057 -0.032873 0.000423 -4.38807 -0.53678 -4.8259 2650 
2117 1 -0.0606437 -0.00337445 -0.0320202 0.000423 -1.33266 0.0281362 2.52395 2650 
1640 1 -0.0611711 -0.0023136 -0.0318324 4.2e-05 -0.59591 0.123689 1.14514 2650 
2480 1 -0.0612709 -0.0159477 -0.0314785 0.000116 1.17173 0.757178 -2.2807 2650 
203 1 -0.063389 -0.00682111 -0.0269603 0.000116 -1.25422 -0.155573 2.94891 2650 
2282 1 -0.0636798 -0.0182588 -0.026266 0.000116 -1.21417 -0.217732 2.94365 2650 
4068 1 -0.0635748 -0.0309431 -0.0257137 0.000423 -0.546492 -0.238664 1.35115 2650 
1378 1 -0.064173 -0.0123199 -0.025037 0.000116 0.193645 0.703015 -0.496336 2650 
2898 1 -0.0644033 -0.0128329 -0.0235618 0.000423 0.0607799 0.513178 -0.166134 2650 
940 1 -0.0649922 -0.0286205 -0.0228261 0.000116 -0.563708 -0.716181 1.60503 2650 
689 1 -0.0647054 -0.0125416 -0.0227191 0.000423 0.072848 0.609829 -0.207476 2650 
2768 1 -0.0646805 -0.0116862 -0.02279 0.000423 -0.564915 -0.274146 1.60329 2650 
208 1 -0.0651599 -0.00819982 -0.022343 0.000116 -0.228681 1.5969 0.66691 2650 
3229 1 -0.0646801 -0.00302322 -0.0227912 0.000423 -0.536026 0.793885 1.52121 2650 
114 1 -0.0648794 -0.00643955 -0.0214912 0.000656 -0.803563 -0.332885 2.42586 2650 
2234 1 -0.0652272 -0.0378942 -0.0211747 0.000423 -0.640533 -0.226816 1.97312 2650 
1825 1 -0.0658013 -0.0408102 -0.0203768 0.000116 2.1979 -1.19075 -7.09753 2650 
433 1 -0.0658669 -0.0124639 -0.0204146 4.2e-05 -0.928949 -0.11324 2.99722 2650 
4342 1 -0.0661125 -0.00351064 -0.0193432 0.000116 -0.744144 0.409574 2.54338 2650 
1808 1 -0.0658372 -0.0158259 -0.0181273 0.000423 -3.81174 -0.68215 1.91805 2650 
2821 1 -0.0665146 -0.0439542 -0.0179118 0.000116 -0.211422 -0.325454 0.785103 2650 
3671 1 -0.0661962 -0.000844562 -0.0179167 0.000423 -0.488334 -0.0464703 1.80423 2650 
892 1 -0.066248 -0.00443228 -0.0168049 0.000656 -0.449264 0.116617 1.77108 2650 
606 1 -0.000183 0.00198002 -0.016592 0.000116 0 -0.011753 0 2650 
2520 1 -0.000387702 0.00490638 -0.0167157 4.2e-05 0.00271487 -0.00197792 -0.0154802 2650 
3279 1 -0.000138265 0.043586 -0.0167581 0.000116 0.0698602 -0.118112 -0.0910458 2650 
980 1 -0.0669366 -0.0356453 -0.0165741 4.2e-05 1.12628 -0.0218825 -4.54865 2650 
4098 1 -0.0667048 -0.0349214 -0.0159192 0.000423 -0.322704 -0.31584 1.35219 2650 
3261 1 -0.0669928 -0.00562086 -0.016031 0.000116 -0.0914136 -0.24545 0.382013 2650 
1095 1 -0.0670004 -0.00494983 -0.0162589 4.2e-05 0.188041 -1.45833 1.02705 2650 
3470 1 -0.0669638 -0.00483292 -0.0161448 0.000116 -0.090116 -0.0713585 0.455277 2650 
2172 1 -0.00190932 -0.001258 -0.0164973 0.000116 0.0682862 0.00746542 -0.00852403 2650 
30 1 -0.00135731 -0.000941964 -0.0159256 0.000423 -0.0136125 -0.0214967 0.00834717 2650 
2013 1 -0.00290947 0.00296986 -0.0159591 0.000423 -0.00154235 0.00221798 0.00156406 2650 
2301 1 -0.0042709 0.00380588 -0.0163251 4.2e-05 -0.00116259 -0.0070103 0.00459775 2650 
2283 1 -0.00352354 0.00393447 -0.0164257 0.000116 -0.00010552 0.00956354 0.000789399 2650 
1679 1 -0.0040003 0.00400595 -0.0159226 0.000423 -0.00453172 0.0157125 0.00260684 2650 
3121 1 -0.000269339 0.00519063 -0.0161968 0.000423 0.0292403 0.00123583 8.703e-05 2650 
978 1 -0.0032427 0.00646906 -0.0163298 0.000116 0.0180122 -0.00353228 -0.00159853 2650 
3934 1 -0.001977 0.00674202 -0.016218 0.000116 0 -0.011753 0 2650 
3177 1 -0.000266398 0.00866258 -0.0159941 4.2e-05 0.00917698 -0.00185525 -0.00666376 2650 
1483 1 -0.000416739 0.00980164 -0.0160894 0.000423 -0.00134867 0.0112238 -0.0085204 2650 
3007 1 -0.00249746 0.0109269 -0.0160837 0.000423 -0.00351627 -0.00337698 0.014455 2650 
371 1 -0.000531733 0.0107825 -0.0161327 0.000423 0.0024809 0.0249977 -0.0257035 2650 
188 1 -0.00219244 0.0120528 -0.0164017 0.000116 -0.0148612 0.0228045 0.00418427 2650 
2713 1 -0.000727224 0.0135504 -0.0162514 0.000116 0.00037122 0.035974 0.00535071 2650 
3395 1 -0.00381892 0.0258295 -0.0165268 4.2e-05 -0.366804 -0.184016 0.0582701 2650 
2084 1 -0.00509179 0.0330287 -0.0160127 4.2e-05 0.335 0.103655 -0.0828045 2650 
2021 1 -0.00379498 0.0531066 -0.015996 0.000423 0.161017 -0.0932862 -0.0357176 2650 
3543 1 -0.0641864 -0.0209302 -0.0151458 0.000423 0.257186 -0.121638 -3.04564 2650 
736 1 -0.00661213 -0.000642256 -0.0151187 0.000116 -0.0307431 -0.0170391 0.0144389 2650 
2399 1 -0.002418 0.00219402 -0.015541 0.000116 0 -0.011753 0 2650 
3637 1 -0.00495549 0.00344287 -0.015682 0.000423 -0.0121297 0.0118194 -0.00377228 2650 
1611 1 -0.00455403 0.00526214 -0.0156664 0.000116 0.0134772 -0.0209987 -0.0751807 2650 
4227 1 -0.000529497 0.00490177 -0.0154497 0.000116 0.00143204 -0.0228975 -0.0290312 2650 
2438 1 -0.00592876 0.00726489 -0.0150725 0.000423 -0.00472103 -0.000373669 -0.00125399 2650 
3830 1 -0.006879 0.00829402 -0.015411 4.2e-05 0 -0.011753 0 2650 
233 1 -0.00404408 0.00909264 -0.0150549 0.000423 0.0114684 -0.00558491 0.0116559 2650 
289 1 -0.00300644 0.00972178 -0.0153247 0.000116 -0.00850769 0.000708308 0.0302001 2650 
2969 1 -0.00219781 0.00999243 -0.0150951 0.000656 -0.00775713 0.0181674 -1.8219e-05 2650 
938 1 -0.00145137 0.00989545 -0.0156213 0.000116 -0.00119823 0.000558801 -0.00633771 2650 
3500 1 -0.00228994 0.0107279 -0.0154406 4.2e-05 -0.0454796 -0.00333034 0.0313479 2650 
2793 1 -0.000875747 0.0106339 -0.0152396 0.000423 -0.0133021 0.0647623 0.00243086 2650 
70 1 -0.00604401 0.0111118 -0.0150179 0.000116 0.0420474 0.0335815 -0.0676972 2650 
3644 1 -0.00115928 0.0129579 -0.0156508 0.000423 -0.000399523 0.00418678 0.0157329 2650 
2924 1 -0.00587206 0.0146107 -0.0156747 0.000116 -0.0500795 0.0331408 0.0243033 2650 
2585 1 -0.000397454 0.022601 -0.0154432 0.000116 -0.0221426 0.0759057 0.0070692 2650 
2497 1 -0.00615471 0.0237239 -0.0156952 0.000116 0.26823 0.110209 -0.140993 2650 
4010 1 -0.00633109 0.0405548 -0.0155809 0.000116 -0.0944465 0.099748 0.0197066 2650 
1690 1 -0.0670511 -0.0395631 -0.0143894 0.000423 -0.682631 -0.673328 3.11864 2650 
4097 1 -0.00780189 -0.00339139 -0.014467 0.000423 0.252815 -0.18346 0.265283 2650 
2002 1 -0.0670717 -0.00265713 -0.0142948 0.000423 -0.414126 -0.0633142 1.94309 2650 
4244 1 -0.000469312 -0.00252726 -0.0149888 0.000116 -0.0436806 -0.00994679 0.0125723 2650 
1053 1 -0.007469 -0.00164798 -0.014946 0.000116 0 -0.011753 0 2650 
3602 1 -0.0673954 -0.00018052 -0.0142434 0.000116 -0.109394 -0.108794 0.517618 2650 
509 1 -0.007525 -0.000317278 -0.0149194 0.000116 -0.00480979 -0.0076817 0.0108723 2650 
1991 1 -0.00717378 0.000313667 -0.0143665 0.000656 -0.019376 -0.00203791 0.00870126 2650 
3239 1 -0.00596403 0.00121382 -0.0144674 0.000116 -0.0248133 -0.00752354 0.0120924 2650 
857 1 -0.00341418 0.00212346 -0.0149197 0.000116 -0.0623021 0.0193526 0.00200378 2650 
3365 1 -0.002315 0.00462002 -0.014552 0.000116 0 -0.011753 0 2650 
1192 1 -0.00680171 0.00541899 -0.0143474 0.000116 -0.0160738 0.0171838 -0.0228619 2650 
1388 1 -0.0048856 0.00542719 -0.0142554 0.000116 -0.039288 0.0021603 0.0169103 2650 
2344 1 -0.000345224 0.004946 -0.014418 0.000423 0.00575909 -0.0231993 -0.0217047 2650 
1204 1 -0.00545726 0.0075772 -0.014768 4.2e-05 0.0310616 -0.0128877 0.0295818 2650 
581 1 -0.00562841 0.00803796 -0.0145615 0.000423 0.00044719 0.0010883 0.00185987 2650 
2313 1 -0.00373034 0.00796646 -0.014521 0.000656 0.00500542 -0.00556791 -0.044623 2650 
2092 1 -0.00667655 0.00916786 -0.0143995 0.000656 -0.00167296 0.00263094 0.0238503 2650 
86 1 -0.00373921 0.0100807 -0.0149868 0.000116 -0.0196067 0.0126222 0.000798653 2650 
2781 1 -0.00605117 0.0105951 -0.0144857 0.000423 -0.00287998 0.011096 -0.0317373 2650 
1228 1 -0.00170021 0.0116842 -0.014961 0.000423 -0.0026547 0.0243513 0.000515369 2650 
1617 1 -0.000842405 0.0110754 -0.0142685 0.000116 0.00511482 0.0710113 0.047396 2650 
2182 1 -0.00103 0.0111787 -0.0149823 0.000116 -0.0273815 0.022445 -0.0411396 2650 
3163 1 -0.00837333 0.0127838 -0.01437 0.000116 -0.0370466 0.0283549 -0.0433006 2650 
1839 1 -0.00254381 0.0149204 -0.0148885 0.000116 -0.0676852 0.0211351 0.0188737 2650 
2466 1 -0.00687897 0.020547 -0.0149853 0.000423 0.048327 0.0396991 -0.0547289 2650 
148 1 -0.00697461 0.0301647 -0.0149122 0.000423 -0.145516 -0.155086 0.0592808 2650 
4234 1 -0.00455796 0.0303878 -0.0148096 0.000116 -0.0277623 0.0670651 -0.0707711 2650 
1124 1 -0.00135083 0.037155 -0.0143762 0.000423 0.115227 0.0704534 -0.0460588 2650 
2863 1 -0.00451409 0.0493436 -0.0147036 0.000656 0.0278245 0.133951 -0.121512 2650 
1196 1 -0.0674263 -0.0393783 -0.0140425 0.000116 -0.369294 0.135424 3.28828 2650 
2765 1 -0.0672258 -0.0192154 -0.0135512 0.000423 0.245273 0.745189 -1.21675 2650 
2666 1 -0.00517011 -0.00264931 -0.014208 0.000423 0.0429038 -0.00888448 0.00629481 2650 
107 1 -0.0675928 -0.00116307 -0.0136537 4.2e-05 -0.600202 0.748927 2.97132 2650 
1964 1 -0.0675708 -0.00107545 -0.0133867 0.000116 -0.383121 0.147035 1.93384 2650 
3576 1 -0.00429283 -0.00146482 -0.0134322 0.000116 0.0561059 0.00120064 -0.0311085 2650 
3599 1 -0.00157269 -0.00129957 -0.0141812 0.000116 0.00758272 -0.00512374 -0.0536854 2650 
2332 1 -0.00544676 -0.00063539 -0.0135145 0.000423 -0.0114447 -0.00779769 0.00753018 2650 
2922 1 -0.00751408 0.00137262 -0.0137549 0.000116 -0.00925852 -0.000802711 0.00675368 2650 
2512 1 -0.00765636 0.00242843 -0.013441 0.000116 0.018779 -0.0192413 0.00230208 2650 
2474 1 -0.00165175 0.00283245 -0.0135594 0.000423 0.0307748 -0.0136667 -0.043701 2650 
150 1 -0.00872961 0.00328328 -0.0137828 0.000423 -0.0542472 0.016714 0.0257745 2650 
220 1 -0.00343457 0.00325482 -0.0141672 4.2e-05 0.00197382 0.00663681 0.00671825 2650 
4300 1 -0.000559901 0.00376583 -0.0137724 0.000423 0.0157414 0.0249973 -0.0399245 2650 
2913 1 -0.00917885 0.00449611 -0.013831 0.000116 -0.0140945 -0.0228944 -0.00540615 2650 
2322 1 -0.00901693 0.00599164 -0.0134492 0.000656 -0.00299145 -0.013582 0.00409796 2650 
1288 1 -0.002467 0.00592302 -0.014044 0.000116 0 -0.011753 0 2650 
3515 1 -0.00819921 0.00689509 -0.0139704 0.000656 -0.00927244 -0.00874495 -0.000839897 2650 
2918 1 -0.00701971 0.00641446 -0.0137161 0.000116 0.0149777 0.0131491 0.0124233 2650 
963 1 -0.00700308 0.00702573 -0.0137322 0.000116 0.00350227 -0.00324664 0.0156587 2650 
1618 1 -0.00987455 0.00749075 -0.0135985 0.000116 0.0059414 0.00192455 -0.00369393 2650 
1250 1 -0.00868835 0.00778359 -0.0134403 0.000423 -0.00730125 -0.00574558 -0.000431452 2650 
1769 1 -0.00781152 0.00842164 -0.0139762 0.000656 -0.0151574 -0.00915465 0.00228284 2650 
2726 1 -6.71681e-05 0.00848108 -0.0134891 0.000116 -0.00741369 0.00988612 -0.041436 2650 
1237 1 -0.00937694 0.00917659 -0.0134239 0.000423 -0.00626746 0.00986586 0.00606863 2650 
4190 1 -0.00875713 0.00895505 -0.0139568 0.000423 -0.00788233 0.00684233 0.00501954 2650 
1476 1 -0.007314 0.00992573 -0.0134381 0.000423 -0.00473027 0.00118609 -0.000138689 2650 
1827 1 -0.0058751 0.00959706 -0.0138897 0.000116 0.0445821 -0.0304485 -0.00868089 2650 
1409 1 -0.00044 0.00970302 -0.013868 0.000116 0 -0.011753 0 2650 
3150 1 -0.00102121 0.0106715 -0.0141353 0.000116 -0.0182263 -0.0087302 -0.0269448 2650 
4231 1 -0.00140057 0.0181091 -0.0141804 0.000116 -0.0134934 0.0153003 0.0304581 2650 
1717 1 -0.00305234 0.0262371 -0.0137789 0.000116 -0.014717 0.0706098 -0.0348682 2650 
1195 1 -0.00672868 0.0298966 -0.0140486 0.000116 0.0557766 0.0782116 -0.0138054 2650 
945 1 -0.00901869 0.0477198 -0.0140983 0.000116 -0.168071 -0.11375 0.123831 2650 
95 1 -0.0671906 -0.0352008 -0.0128262 0.000116 1.44693 0.994437 -6.15447 2650 
1763 1 -0.00188825 -0.00288347 -0.0131799 0.000656 -0.0890582 0.0217677 -0.0881811 2650 
2242 1 -0.0672972 -0.000649077 -0.0131923 0.000423 -0.379837 -0.0564906 1.93764 2650 
3191 1 -0.00908059 -0.000481114 -0.0128215 0.000656 -0.0183475 -0.00795438 -0.00635009 2650 
623 1 -0.00789169 -0.00031401 -0.0130864 0.000116 -0.0192086 -0.00896372 0.0230222 2650 
2619 1 -0.00614312 0.000782771 -0.0127415 0.000116 -0.0137973 -0.0204082 0.00531131 2650 
2525 1 -0.004063 0.000150021 -0.013231 4.2e-05 0 -0.011753 0 2650 
4126 1 -0.00739597 0.000976568 -0.0128598 0.000116 -0.0261531 0.0084042 0.00402279 2650 
4165 1 -0.00525847 0.000855633 -0.0128654 0.000656 -0.00295906 -0.0330191 0.0101422 2650 
3880 1 -0.0103532 0.00200501 -0.0128538 0.000423 -0.0020648 -0.00583391 0.00454369 2650 
2473 1 -0.00929705 0.00195152 -0.0129015 0.000423 0.0167774 -0.00661482 -0.0238345 2650 
2609 1 -0.00886 0.00169002 -0.013248 0.000116 0 -0.011753 0 2650 
3316 1 -0.00947386 0.00299616 -0.013174 0.000423 -0.00544519 -0.0183171 -0.00879554 2650 
1171 1 -0.00738709 0.00309697 -0.0128308 0.000116 0.0131753 -0.0110464 0.0150896 2650 
1032 1 -0.00535623 0.00308059 -0.0132546 0.000423 0.0299121 -0.00820922 0.0127278 2650 
676 1 -0.00471115 0.00245564 -0.013133 0.000423 -0.0128147 0.00889048 0.0204924 2650 
3917 1 -0.003984 0.00245102 -0.012703 0.000116 0 -0.011753 0 2650 
2059 1 -0.003583 0.00266002 -0.012756 0.000116 0 -0.011753 0 2650 
3587 1 -0.00917671 0.00394132 -0.0133808 0.000116 -0.0579635 0.0255056 0.0285778 2650 
889 1 -0.00279857 0.0037251 -0.0132696 0.000656 0.0239908 0.0133229 -0.0547828 2650 
1398 1 -0.0101629 0.00436221 -0.0129285 0.000116 -0.274628 -0.15485 -0.162668 2650 
3787 1 -0.00668614 0.00411745 -0.0132753 0.000116 -0.0024271 -0.00223267 -0.0195234 2650 
763 1 -0.00654832 0.00463339 -0.0128029 4.2e-05 -0.0107376 -0.0192397 -0.014763 2650 
3446 1 -0.00100404 0.00411363 -0.0130119 0.000423 0.016221 -0.0142776 -0.00742368 2650 
1427 1 -0.002948 0.00499102 -0.013376 4.2e-05 0 -0.011753 0 2650 
3362 1 -0.00262561 0.00482831 -0.0127338 0.000116 0.000350619 -0.00253681 -0.00404217 2650 
2912 1 -0.00542918 0.00628725 -0.0131263 0.000116 0.00196064 0.0151142 0.00117299 2650 
445 1 -0.0100523 0.00705358 -0.0127698 0.000656 -0.00236227 -0.000765152 0.00548657 2650 
3259 1 -0.00884813 0.0065622 -0.0126856 0.000116 0.00136236 -0.0113258 0.00321419 2650 
4179 1 -0.00796887 0.00644674 -0.0129264 0.000423 -0.0070231 -0.0226882 -0.00131956 2650 
1795 1 -0.00901332 0.00734798 -0.012695 0.000423 -5.39571e-05 -0.00579665 0.00392393 2650 
4257 1 -0.0080337 0.00773804 -0.0133767 0.000116 -0.00578911 -0.00907208 0.00958653 2650 
3364 1 -0.00666536 0.00745335 -0.0131983 0.000116 -0.00179506 0.0163753 -0.0232219 2650 
2222 1 -0.000735445 0.00773058 -0.0134075 0.000423 0.00109584 0.00172293 0.0219135 2650 