ITEM: TIMESTEP
7774560
ITEM: NUMBER OF ATOMS
4330
ITEM: BOX BOUNDS ff ff ff
-0.15 0.15
-0.15 0.06
-0.15 0.15
ITEM: ATOMS id type x y z radius vx vy vz density 
1081 1 -0.00138988 -0.0460369 -0.0688701 0.000116 -0.799997 -0.0943078 0.0161449 2650 
3000 1 -0.00644591 -0.0503971 -0.0682745 0.000423 -2.07288 0.223399 0.195705 2650 
2232 1 -0.00738598 -0.0487391 -0.0681792 0.000423 -2.24296 0.337576 0.242985 2650 
1111 1 -0.00946507 -0.0462181 -0.0676877 0.000656 -2.50264 0.116525 0.349956 2650 
19 1 -0.0171391 -0.0623259 -0.0664017 0.000423 2.84815 -0.00698941 -0.732117 2650 
4132 1 -0.0160263 -0.0517269 -0.0669939 0.000116 0.713672 -0.453018 -0.170725 2650 
3688 1 -0.0174855 -0.0458817 -0.0666279 0.000116 4.63805 -0.524458 -1.21718 2650 
259 1 -0.0176796 -0.059918 -0.0662599 0.000423 0.92898 0.520507 -0.247872 2650 
4366 1 -0.020017 -0.0554596 -0.0659116 0.000116 -0.424158 -0.235729 0.128815 2650 
1961 1 -0.0195906 -0.0546599 -0.0660396 0.000116 4.0925 0.896546 -1.21404 2650 
1282 1 -0.025075 -0.0619034 -0.0640027 0.000116 4.99657 4.18492 -1.34697 2650 
29 1 -0.0237441 -0.0564698 -0.0643363 0.000423 -0.807404 1.05982 0.297982 2650 
632 1 -0.0194249 -0.0619504 -0.0625312 0.000116 4.35864 0.219029 -3.35655 2650 
3066 1 -0.0143661 -0.0606833 -0.060769 4.2e-05 2.78397 1.17281 3.38086 2650 
2169 1 -0.0313815 -0.0482305 -0.0613207 0.000116 1.75104 -0.688549 -0.896115 2650 
4147 1 -0.0342959 -0.0505618 -0.0597397 0.000116 12.9175 -0.825822 -7.4158 2650 
868 1 -0.0299433 -0.0620775 -0.0588845 0.000116 6.33042 -0.180601 0.0520794 2650 
3974 1 -0.0346924 -0.0579509 -0.0591556 0.000423 0.503089 -0.00601555 -0.295042 2650 
3753 1 -0.0395778 -0.0521553 -0.0560049 0.000423 -2.28564 0.110387 1.61522 2650 
4373 1 -0.0421468 -0.0489495 -0.0545789 4.2e-05 0.466462 0.761013 -0.36021 2650 
1813 1 -0.0429346 -0.0617336 -0.053475 0.000423 3.00568 0.0960758 -2.41323 2650 
2167 1 -0.0279551 -0.0561876 -0.052271 0.000116 6.88186 1.78149 -5.16417 2650 
4036 1 -0.0474422 -0.0502532 -0.0499426 0.000116 0.598714 -0.125949 -0.568739 2650 
2559 1 -0.0481867 -0.0623417 -0.048796 0.000423 6.48406 0.011034 -6.39709 2650 
2515 1 -0.0468632 -0.0616308 -0.0490619 0.000116 6.03478 0.597794 -7.50636 2650 
2480 1 -0.0485967 -0.0505539 -0.0488199 0.000116 0.36538 -0.255488 -0.363709 2650 
1471 1 -0.0508801 -0.0529446 -0.04598 0.000423 -0.425489 -0.38454 0.470833 2650 
1058 1 -0.0514801 -0.0457146 -0.0457692 0.000116 0.583443 -0.455326 -0.656242 2650 
295 1 -0.0555979 -0.0548347 -0.0406682 0.000116 0.971722 0.856488 -1.32845 2650 
486 1 -0.0577232 -0.050559 -0.0370268 0.000423 -0.717424 -0.277155 1.11843 2650 
4016 1 -0.0589671 -0.0620536 -0.0356076 0.000116 -1.09619 0.891292 1.81532 2650 
4139 1 -0.0603889 -0.0478961 -0.0331391 0.000116 -0.714169 -0.537434 1.30142 2650 
1231 1 -0.0600164 -0.0467076 -0.0331809 0.000423 -0.550665 -0.0728853 0.996022 2650 
1500 1 -0.0612335 -0.0521099 -0.0315512 0.000116 0.737681 -0.763877 -1.43167 2650 
239 1 -0.061884 -0.0569643 -0.029552 0.000423 -1.07593 -0.171048 2.25308 2650 
3005 1 -0.062204 -0.0585302 -0.0288723 0.000423 -0.369489 0.233088 0.796048 2650 
3090 1 -0.0625283 -0.0608066 -0.0281631 0.000423 -0.426006 0.040694 0.945829 2650 
3547 1 -0.062664 -0.0555784 -0.0278599 0.000423 -0.189739 0.34617 0.426771 2650 
3073 1 -0.0649613 -0.0484159 -0.0231351 4.2e-05 1.54325 -0.546513 -4.33332 2650 
2593 1 -0.0655508 -0.0596777 -0.0211688 0.000116 0.0354877 -0.935886 -0.10989 2650 
1239 1 -0.0673553 -0.0576161 -0.0128929 0.000423 0.860842 0.433943 -4.49721 2650 
935 1 -0.0682818 -0.0522318 -0.00636825 0.000423 0.239163 0.848593 -2.56435 2650 
1326 1 -0.0681907 -0.0504776 -0.00460746 0.000656 -0.112703 0.416088 1.66781 2650 
2201 1 -0.0682571 -0.0518879 -0.00348892 0.000656 -0.0652508 -0.783673 1.27675 2650 
2700 1 -0.0688839 -0.059045 0.000175255 0.000116 0.00191275 -1.47894 0.751808 2650 
1784 1 -0.0684752 -0.0471541 0.00375502 0.000423 0.0628494 -0.256317 1.1461 2650 
2 1 -0.0680275 -0.0502929 0.00659236 0.000656 0.154487 0.0968246 1.59417 2650 
1030 1 -0.0681834 -0.0452918 0.00734693 0.000423 0.135581 -0.182382 1.25826 2650 
1721 1 -0.0682238 -0.0601989 0.00951509 0.000116 -0.0616227 -0.477834 -0.441839 2650 
2451 1 -0.067591 -0.0588424 0.0115937 0.000423 0.618898 -0.341579 3.60817 2650 
1816 1 -0.0677764 -0.061706 0.0123039 0.000116 -0.287253 0.488422 -1.58235 2650 
843 1 -0.0670886 -0.0471815 0.0156249 0.000116 0.0730871 -0.162447 0.313813 2650 
3691 1 -0.0662764 -0.0590269 0.018774 0.000116 0.0931699 -1.35152 0.328911 2650 
1256 1 -0.0649468 -0.0616178 0.0220197 0.000423 0.421485 -0.0496319 1.24317 2650 
3810 1 -0.0600819 -0.0623291 0.0220434 0.000116 -2.97602 -0.199928 -6.60586 2650 
753 1 -0.0599769 -0.0622876 0.0223595 0.000116 -2.27954 0.182376 -6.2028 2650 
3619 1 -0.0631927 -0.0525555 0.0276024 4.2e-05 -3.47165 0.40591 -7.94797 2650 
3785 1 -0.0619333 -0.0592775 0.0301545 0.000116 -0.784149 0.396367 -1.61054 2650 
3038 1 -0.0619318 -0.0542043 0.0301574 0.000116 -0.543701 0.374757 -1.11655 2650 
3134 1 -0.060501 -0.0537597 0.0329341 0.000116 -1.51774 0.0262021 -2.78813 2650 
3426 1 -0.0584951 -0.0623774 0.0356703 0.000423 -5.38572 0.0922047 -11.0435 2650 
2395 1 -0.0555603 -0.0625119 0.0357228 0.000116 -4.92613 0.00318317 -11.0225 2650 
1833 1 -0.058978 -0.0621428 0.03549 0.000116 -4.63192 4.57781 -12.8856 2650 
167 1 -0.0587083 -0.0618755 0.0359755 0.000116 0.773568 4.58007 -1.37752 2650 
3143 1 -0.0587962 -0.049031 0.0358894 0.000116 -6.59661 -3.57883 -10.8068 2650 
2210 1 -0.0574262 -0.0584714 0.0370599 0.000656 1.59424 -0.102535 2.47036 2650 
4124 1 -0.0578302 -0.0542415 0.0374258 0.000116 1.37196 1.85379 2.11995 2650 
4376 1 -0.0555215 -0.0615343 0.0408124 4.2e-05 0.119643 0.0877604 -0.759496 2650 
2256 1 -0.0553825 -0.0530131 0.040961 0.000116 -2.47007 0.727718 -3.33973 2650 
208 1 -0.0545094 -0.0617634 0.0421158 0.000116 -1.6968 -1.65436 -2.19612 2650 
3933 1 -0.0519996 -0.0543466 0.0451781 0.000116 0.571681 0.138187 0.658001 2650 
1912 1 -0.0511167 -0.0492393 0.0457169 0.000423 1.1519 0.075775 1.28796 2650 
3088 1 -0.0493047 -0.0557542 0.0476655 0.000423 1.95954 0.358315 2.02693 2650 
2606 1 -0.0436583 -0.0623106 0.0530535 0.000116 -10.0004 -0.0676784 -7.82721 2650 
3540 1 -0.040652 -0.0513297 0.0552309 0.000423 -8.68743 -0.841858 -6.39428 2650 
575 1 -0.0390069 -0.0573986 0.0564045 0.000423 -7.44571 -1.86019 -5.14908 2650 
3549 1 -0.0355761 -0.0535395 0.0586284 0.000423 0.522223 -0.685077 0.316889 2650 
689 1 -0.0327408 -0.0554516 0.0602578 0.000423 -4.25171 0.480632 -2.31015 2650 
955 1 -0.0198282 -0.0575115 0.0659687 0.000116 1.23932 1.00027 0.372501 2650 
3724 1 -0.0182127 -0.0617345 0.0665095 4.2e-05 -11.8366 0.388828 -3.24129 2650 
2711 1 -0.0160785 -0.0611831 0.0669814 0.000116 -1.98404 0.0282096 -0.47626 2650 
95 1 -0.0174436 -0.0552347 0.0666389 0.000116 -2.41501 0.387021 -0.632162 2650 
2087 1 -0.0176347 -0.0479312 0.066665 4.2e-05 3.28656 -0.493939 0.869386 2650 
856 1 -0.0128953 -0.046549 0.0676663 0.000116 0.815438 -0.606066 0.155399 2650 
693 1 -0.00742041 -0.0617345 0.0681757 0.000423 -7.62194 -0.103921 -0.829591 2650 
734 1 -0.00711997 -0.0585237 0.0685152 0.000116 -1.19651 -0.514874 -0.124339 2650 
2833 1 -0.0109176 -0.0479001 0.0680134 0.000116 -1.74277 -0.973895 -0.27975 2650 
2634 1 -0.00879888 -0.0452435 0.0683944 4.2e-05 4.53509 0.965693 0.583436 2650 
831 1 -0.00405355 -0.0208087 -0.0687751 0.000116 -0.771063 -0.206773 -0.143067 2650 
733 1 -0.00168844 -0.0181711 -0.0688634 0.000116 4.58717 3.39128 -0.112471 2650 
2038 1 -0.00262744 -0.00702005 -0.068834 0.000116 -2.51397 -0.384086 0.09596 2650 
2234 1 -0.00530941 -0.0364413 -0.0683722 0.000423 -2.14717 -0.0765649 0.166738 2650 
1206 1 -0.0120233 -0.0270891 -0.0679018 4.2e-05 -3.06404 4.76005 0.542545 2650 
2626 1 -0.00887888 -0.017064 -0.0683095 0.000116 -1.48983 -0.313259 0.193649 2650 
197 1 -0.00734331 -0.0119219 -0.0684916 0.000116 -3.18537 -0.196009 0.341519 2650 
3069 1 -0.00762251 -0.00837463 -0.0685354 4.2e-05 -1.65281 -0.561227 0.183826 2650 
1723 1 -0.00360844 -0.00554223 -0.068549 0.000116 -3.25659 -0.158633 -0.361831 2650 
1760 1 -0.0107473 -0.00254523 -0.0681154 4.2e-05 -2.11682 0.0260272 0.333994 2650 
50 1 -0.0140309 -0.0197189 -0.0671274 0.000423 -2.96762 -0.24398 0.62029 2650 
2996 1 -0.0114609 -0.0154015 -0.0676136 0.000423 -2.48349 0.137176 0.420967 2650 
228 1 -0.0129633 -0.0132097 -0.0671056 0.000656 -2.4908 0.260309 0.48117 2650 
106 1 -0.0117483 -0.00416831 -0.0678262 4.2e-05 5.8475 -0.426246 -1.40127 2650 
1914 1 -0.0167622 -0.0267333 -0.066498 0.000423 -2.05399 0.0857431 0.517749 2650 
1275 1 -0.0185223 -0.0159374 -0.0663472 0.000116 -3.55708 0.279963 0.993036 2650 
1792 1 -0.0167333 -0.0123871 -0.0665052 0.000423 -2.48741 -0.107387 0.625855 2650 
3779 1 -0.0157132 -0.00566584 -0.0667536 0.000423 -2.44733 -0.168903 0.57608 2650 
2002 1 -0.0171 -0.000819781 -0.0664119 0.000423 -1.99674 -0.0342863 0.514129 2650 
3671 1 -0.0183301 -0.0104462 -0.0660829 0.000423 -1.85435 0.406147 0.514361 2650 
2768 1 -0.020011 -0.00339954 -0.0655935 0.000423 -1.62382 -0.155277 0.49539 2650 
2242 1 -0.0175953 -0.00179946 -0.0662824 0.000423 -2.33988 -0.0702022 0.621143 2650 
1649 1 -0.0210901 -4.19999e-05 -0.0656538 4.2e-05 10.0732 -6.35337e-10 -3.23584 2650 
2291 1 -0.0219145 -0.00969827 -0.0653053 0.000116 -2.73912 0.0492544 0.919166 2650 
2007 1 -0.0214256 -0.00893908 -0.0651452 0.000423 -3.06765 -0.291746 1.00892 2650 
38 1 -0.0223367 -0.00665987 -0.0648384 0.000423 -2.21302 -0.278099 0.76238 2650 
892 1 -0.021209 -0.00213896 -0.0649721 0.000656 -1.61853 -0.0606863 0.52834 2650 
338 1 -0.0224251 -0.028685 -0.0645625 0.000656 -2.43333 0.30768 0.845189 2650 
1042 1 -0.0235919 -0.0266673 -0.0643923 0.000423 -2.42995 0.357523 0.890281 2650 
4048 1 -0.00543235 -0.0215985 -0.0644687 4.2e-05 8.8 -0.903502 6.64286 2650 
3378 1 -0.0149024 -0.0188758 -0.0639683 0.000116 -3.48218 0.392695 1.83339 2650 
807 1 -0.0242827 -0.0119175 -0.064135 0.000423 -2.84187 -0.176183 1.07598 2650 
3387 1 -0.010987 -0.0405482 -0.0637051 0.000116 5.74532 1.00952 0.564498 2650 
1994 1 -0.024978 -0.0214882 -0.0638675 0.000423 -2.48314 -0.327987 0.971134 2650 
2829 1 -0.0288355 -0.024572 -0.0625582 0.000116 -0.9345 -1.09789 0.430748 2650 
2053 1 -0.0139277 -0.000350073 -0.062532 0.000116 5.55404 -0.0458928 -1.20746 2650 
4068 1 -0.0296642 -0.0224812 -0.0618303 0.000423 -2.03571 0.375254 0.976667 2650 
3210 1 -0.0294499 -0.00982418 -0.0619327 0.000423 -2.91512 -0.187287 1.38618 2650 
1716 1 -0.0299193 -0.00355184 -0.0620472 0.000116 4.44821 -0.358966 -2.14493 2650 
4210 1 -0.0317162 -0.0260586 -0.0608032 0.000423 -2.07059 0.226081 1.08006 2650 
160 1 -0.0308773 -0.0111041 -0.0612335 0.000423 -2.42852 0.0513123 1.22459 2650 
3602 1 -0.0318692 -0.00777155 -0.0610686 0.000116 -2.00608 1.08749 1.04689 2650 
1964 1 -0.0323736 -0.00212112 -0.0608027 0.000116 -0.174443 0.0555372 0.09288 2650 
4069 1 -0.034462 -0.0150257 -0.0592901 0.000423 -1.81846 0.492839 1.05697 2650 
4021 1 -0.0352082 -0.0145181 -0.0592064 0.000116 -2.5396 0.155983 1.51022 2650 
872 1 -0.0353093 -0.0120594 -0.0592323 4.2e-05 -2.74737 -0.199565 1.63775 2650 
2911 1 -0.0341819 -0.00560974 -0.0594521 0.000423 -2.17152 0.337286 1.24851 2650 
1856 1 -0.0361585 -0.0433371 -0.0586309 0.000116 -2.47228 0.03723 1.52469 2650 
2102 1 -0.0352528 -0.0262308 -0.058553 0.000656 -2.07257 0.152113 1.24783 2650 
3015 1 -0.0363403 -0.0283325 -0.0581578 0.000423 -2.08439 0.0966453 1.30244 2650 
1916 1 -0.0365228 -0.017523 -0.0580434 0.000423 -2.71499 0.0793859 1.70836 2650 
299 1 -0.0389159 -0.00849586 -0.0568382 0.000116 -2.64364 -0.181492 1.81004 2650 
4098 1 -0.0401472 -0.0223676 -0.0555981 0.000423 -0.338273 -0.791306 0.244265 2650 
1196 1 -0.0409104 -0.0186869 -0.0554199 0.000116 -2.57285 -0.513369 1.89925 2650 
1323 1 -0.0403621 -0.0208167 -0.0551553 0.000656 0.193232 0.124473 -0.140715 2650 
2765 1 -0.0420939 -0.040478 -0.0541392 0.000423 -1.13388 0.50006 0.881622 2650 
2296 1 -0.0429312 -0.0335794 -0.0538696 0.000116 -2.35486 -1.1915 1.8767 2650 
287 1 -0.04275 -0.013857 -0.0540135 0.000116 -1.40536 0.988422 1.1123 2650 
1683 1 -0.0441231 -0.0189648 -0.0524986 0.000423 -2.43959 0.0225056 2.05038 2650 
437 1 -0.0447065 -0.0114884 -0.0525027 4.2e-05 -2.43741 -0.195666 2.07547 2650 
2817 1 -0.04449 -0.00638093 -0.0525895 0.000116 -2.44006 -0.144751 2.06426 2650 
2192 1 -0.0466561 -0.01754 -0.050778 4.2e-05 -2.09122 -1.26414 1.90444 2650 
2803 1 -0.0460321 -0.0170974 -0.0512452 0.000116 -0.551012 -0.547324 0.494958 2650 
2685 1 -0.0470663 -0.026429 -0.0498769 0.000423 -1.30183 0.546071 1.22847 2650 
4293 1 -0.0466968 -0.0116459 -0.0502231 0.000423 -1.04886 0.441683 0.97522 2650 
4026 1 -0.0475733 -0.00849958 -0.0498177 0.000116 2.10279 -0.925829 -2.00805 2650 
3622 1 -0.0481492 -0.0214459 -0.0485063 0.000656 -1.3654 0.418659 1.35535 2650 
2820 1 -0.048592 -0.0190832 -0.0488246 0.000116 -0.499875 -2.68495 0.497493 2650 
2947 1 -0.0492316 -0.00885342 -0.0481796 0.000116 -2.18227 -0.0184271 2.22992 2650 
1177 1 -0.0484863 -0.000786 -0.0489295 0.000116 2.03638 -0.251138 -2.01794 2650 
2898 1 -0.0496874 -0.021624 -0.0472664 0.000423 -1.57078 0.148989 1.65124 2650 
3989 1 -0.0506007 -0.0028285 -0.0462873 0.000423 -1.53933 0.0639906 1.68277 2650 
1208 1 -0.0514704 -0.00144027 -0.0458912 4.2e-05 -2.8443 -0.043337 3.19009 2650 
3817 1 -0.0516633 -0.00424783 -0.0455623 0.000116 -2.11831 0.0746891 2.40196 2650 
3261 1 -0.051893 -0.000613558 -0.0453005 0.000116 -0.679924 -0.245891 0.778873 2650 
2343 1 -0.0521314 -0.0222816 -0.0445564 0.000423 -1.48621 0.376801 1.73888 2650 
3198 1 -0.0529283 -0.0405184 -0.0436101 0.000423 0.017654 0.34067 0.33643 2650 
2060 1 -0.0515137 -0.0199257 -0.0435312 0.000116 2.25121 -0.157518 -1.32394 2650 
410 1 -0.0533635 -0.0145288 -0.0435587 0.000116 -1.27387 -0.360524 1.56061 2650 
1838 1 -0.0545656 -0.0317561 -0.0420431 0.000116 -1.53183 -0.333965 1.98808 2650 
3385 1 -0.0545192 -0.0142984 -0.0421033 0.000116 -0.20011 -0.694778 0.259121 2650 
800 1 -0.0558993 -0.0252687 -0.0397268 0.000423 -1.87427 -1.01476 2.63727 2650 
2900 1 -0.0559539 -0.0208457 -0.0396499 0.000423 -1.45396 -0.217879 2.05234 2650 
3054 1 -0.0563145 -0.00404754 -0.0396699 0.000116 -1.17996 -1.68404 1.67505 2650 
3018 1 -0.0563161 -0.00104168 -0.0391337 0.000423 -1.57518 -0.0600704 2.26679 2650 
897 1 -0.0570028 -0.0401839 -0.0381265 0.000423 -0.554732 0.597068 0.829312 2650 
2086 1 -0.0574894 -0.0161712 -0.0380812 4.2e-05 -1.76573 -0.157822 2.66564 2650 
2738 1 -0.0573948 -0.00245841 -0.0382237 4.2e-05 -1.80115 -0.566431 2.70451 2650 
2858 1 -0.0575965 -0.0158255 -0.0367947 0.000656 -1.2301 0.294859 1.92554 2650 
3615 1 -0.058306 -0.0154506 -0.0368188 4.2e-05 -1.6445 1.26632e-05 2.60422 2650 
1832 1 -0.0585306 -0.0118018 -0.0363206 0.000116 -1.62033 -0.771447 2.61116 2650 
4260 1 -0.0599139 -0.0151612 -0.0339905 0.000116 -1.61215 0.326907 2.84168 2650 
322 1 -0.0604877 -0.0145561 -0.0331126 4.2e-05 -1.53759 -0.190508 2.80876 2650 
2048 1 -0.060245 -0.00626429 -0.0334 0.000116 -1.556 0.155332 2.80663 2650 
164 1 -0.0602629 -0.0400943 -0.0327312 0.000423 -1.03577 -0.0149624 1.90701 2650 
814 1 -0.0604187 -0.0357501 -0.0324427 0.000423 -0.739659 0.609667 1.37748 2650 
394 1 -0.0607961 -0.034563 -0.032386 0.000116 -1.2403 -0.356096 2.32834 2650 
1408 1 -0.060801 -0.0132386 -0.0323768 0.000116 -1.23096 -0.382854 2.31164 2650 
4309 1 -0.0606734 -0.00265242 -0.0319639 0.000423 -1.03117 0.303227 1.95736 2650 
2821 1 -0.0610266 -0.0218251 -0.0309976 0.000116 -1.36482 -0.670601 -0.940471 2650 
1424 1 -0.0614364 -0.00809577 -0.0313174 4.2e-05 -1.45333 -0.185444 2.85104 2650 
3375 1 -0.0619614 -0.0392796 -0.0300966 0.000116 -0.987861 0.0164501 2.03376 2650 
3229 1 -0.0614621 -0.0209115 -0.0304532 0.000423 -0.503108 -0.024389 0.857794 2650 
2681 1 -0.0614986 -0.00916108 -0.030346 0.000423 -1.33771 0.222083 2.71097 2650 
3260 1 -0.0620567 -0.0186 -0.0298996 0.000116 -0.735676 -0.615769 1.5269 2650 
1878 1 -0.0616583 -0.00770799 -0.0294866 0.000656 -1.15542 -0.0443518 2.41606 2650 
2976 1 -0.0615148 -0.00624753 -0.0297848 0.000656 -1.24624 0.135051 2.57388 2650 
3926 1 -0.0623304 -0.00456884 -0.0293247 0.000116 -1.06188 0.369301 2.25706 2650 
3242 1 -0.0627631 -0.00734383 -0.028387 0.000116 -1.62508 -0.452177 3.59302 2650 
1544 1 -0.0622039 -0.0153444 -0.0283174 0.000656 -0.774597 0.0482909 1.70154 2650 
51 1 -0.0628435 -0.041659 -0.0272017 0.000423 0.023765 -0.526529 0.167079 2650 
1943 1 -0.0631449 -0.00544209 -0.0275272 0.000116 -1.39594 1.21534 3.20212 2650 
827 1 -0.0631866 -0.00338326 -0.0274313 0.000116 -0.669497 0.227919 1.54215 2650 
917 1 -0.0631756 -0.0224077 -0.0266795 0.000423 -0.929046 -0.164987 2.19993 2650 
1958 1 -0.0641186 -0.0174206 -0.0248655 0.000116 -0.110907 0.865025 0.206065 2650 
198 1 -0.0635185 -0.000297845 -0.0246236 0.000116 0.612013 -0.238913 1.23409 2650 
121 1 -0.0641881 -0.015446 -0.0234752 0.000656 -0.713934 0.301909 1.9521 2650 
1202 1 -0.0648 -0.0113437 -0.0235832 4.2e-05 -1.46591 0.95181 4.0279 2650 
3329 1 -0.0648445 -0.0244561 -0.0223192 0.000423 -0.818475 -0.026744 2.37794 2650 
1335 1 -0.0648423 -0.0222747 -0.0223255 0.000423 -0.857554 0.0498834 2.49069 2650 
4095 1 -0.0647606 -0.00181132 -0.0225614 0.000423 -0.869836 0.122248 2.49679 2650 
335 1 -0.0647359 -0.025853 -0.0219198 0.000656 -0.842688 -0.0454389 2.48872 2650 
1227 1 -0.06509 -0.0240533 -0.0215927 0.000423 -0.794389 -0.0400778 2.39464 2650 
3782 1 -0.0651783 -0.017826 -0.0213246 0.000423 -0.896397 0.145344 2.73983 2650 
3863 1 -0.0659386 -0.0247017 -0.0188428 0.000423 -0.643802 -0.0921943 2.25292 2650 
2064 1 -0.066318 -0.0189951 -0.0186266 0.000116 -0.840527 -0.0485185 2.99261 2650 
2816 1 -0.0665673 -0.00703042 -0.0177148 0.000116 -0.19937 -0.360929 0.749177 2650 
415 1 -0.0668212 -0.0075796 -0.0167315 0.000116 -0.797033 -0.0353648 3.18313 2650 
606 1 -0.000183 0.00242402 -0.016592 0.000116 0 -0.011753 0 2650 
2520 1 -6.97547e-05 0.00437173 -0.0169437 4.2e-05 -0.0125271 0.0201098 0.013978 2650 
3500 1 -0.000571843 0.0108537 -0.0166248 4.2e-05 -0.0454796 -0.00333034 0.0313479 2650 
945 1 -0.00156962 0.0516639 -0.0165973 0.000116 -0.212975 -0.0939843 -0.00538188 2650 
417 1 -0.00796399 -0.0035169 -0.0159215 0.000116 -0.980736 -0.0528004 -1.96068 2650 
2172 1 -0.004489 -0.00154002 -0.0161753 0.000116 0.0682862 0.00746542 -0.00852403 2650 
30 1 -0.000843068 -0.000129875 -0.016241 0.000423 -0.0136125 -0.0214967 0.00834717 2650 
2013 1 -0.00285121 0.00288607 -0.0160182 0.000423 -0.00154235 0.00221798 0.00156406 2650 
1679 1 -0.00382897 0.0034123 -0.0160209 0.000423 -0.00453729 0.0157155 0.00260015 2650 
2283 1 -0.00351955 0.00357319 -0.0164555 0.000116 -0.00010552 0.00956354 0.000789399 2650 
2301 1 -0.004222 0.00419702 -0.016305 4.2e-05 0 -0.011753 0 2650 
3121 1 -0.00137437 0.00514454 -0.0161993 0.000423 0.0292552 0.00121421 5.81941e-05 2650 
978 1 -0.00392315 0.0066025 -0.0162694 0.000116 0.0180122 -0.00353228 -0.00159853 2650 
3934 1 -0.001977 0.00718602 -0.016218 0.000116 0 -0.011753 0 2650 
289 1 -0.00268504 0.00969502 -0.0164656 0.000116 -0.00850769 0.000708308 0.0302001 2650 
188 1 -0.00163102 0.0111913 -0.0165598 0.000116 -0.0148612 0.0228045 0.00418427 2650 
2713 1 -0.000741248 0.0121914 -0.0164535 0.000116 0.00037122 0.035974 0.00535071 2650 
2924 1 -0.00374444 0.0133014 -0.0160644 0.000116 -0.059039 0.0353164 0.00422158 2650 
3644 1 -0.00114418 0.0127997 -0.0162452 0.000423 -0.000399523 0.00418678 0.0157329 2650 
148 1 -0.00128961 0.035905 -0.0162792 0.000423 -0.155095 -0.146162 -0.0100659 2650 
4010 1 -0.00276315 0.0367866 -0.0163253 0.000116 -0.0944465 0.099748 0.0197066 2650 
694 1 -6.40035e-05 0.055486 -0.0165576 0.000423 0.113374 -0.0913202 0.0366431 2650 
2612 1 -0.0670647 -0.0314541 -0.0157274 0.000116 -0.598106 0.161094 2.55045 2650 
3153 1 -0.0672421 -0.00838662 -0.0149507 0.000116 -0.696938 -0.181231 3.13455 2650 
509 1 -0.00709677 7.34335e-06 -0.0150201 0.000116 -0.0177725 -0.00949189 -0.00542934 2650 
736 1 -0.00545074 1.43739e-06 -0.0156642 0.000116 -0.0307431 -0.0170391 0.0144389 2650 
3637 1 -0.00449726 0.00299637 -0.0155395 0.000423 -0.0121297 0.0118194 -0.00377228 2650 
2399 1 -0.002418 0.00263802 -0.015541 0.000116 0 -0.011753 0 2650 
2438 1 -0.00575575 0.0072312 -0.0150495 0.000423 -0.00364828 0.010897 0.00465106 2650 
2793 1 -0.00101811 0.00745856 -0.0150464 0.000423 0.0182843 0.0982975 0.0184189 2650 
3830 1 -0.006879 0.00873802 -0.015411 4.2e-05 0 -0.011753 0 2650 
233 1 -0.00447733 0.00930362 -0.0154952 0.000423 0.0114684 -0.00558491 0.0116559 2650 
2969 1 -0.0019055 0.00930568 -0.015094 0.000656 -0.00770999 0.0181957 -4.77754e-05 2650 
3177 1 -0.00061308 0.00873267 -0.0157423 4.2e-05 0.00917698 -0.00185525 -0.00666376 2650 
1483 1 -0.00036579 0.00937764 -0.0157675 0.000423 -0.00134867 0.0112238 -0.0085204 2650 
86 1 -0.00299852 0.00960382 -0.0150169 0.000116 -0.0196067 0.0126222 0.000798653 2650 
1617 1 -0.0016367 0.00999153 -0.015368 0.000116 0.0304013 0.00375314 0.0183235 2650 
938 1 -0.0012748 0.00995341 -0.0154642 0.000116 -0.00972467 -0.0045752 -0.00099221 2650 
371 1 -0.00048937 0.0102236 -0.0156948 0.000423 -0.00202239 0.0122439 -0.00806147 2650 
3007 1 -0.00213913 0.0110923 -0.0156713 0.000423 -0.0135196 -0.00505473 -0.0280609 2650 
4231 1 -0.000890827 0.0175311 -0.015331 0.000116 -0.0134934 0.0153003 0.0304581 2650 
2666 1 -0.00679197 -0.00231285 -0.0144466 0.000423 0.0434652 -0.0093168 0.0067076 2650 
1053 1 -0.007469 -0.00120398 -0.014946 0.000116 0 -0.011753 0 2650 
1991 1 -0.00644181 0.000390654 -0.0146952 0.000656 -0.019376 -0.00203791 0.00870126 2650 
3239 1 -0.00502665 0.00149804 -0.0149242 0.000116 -0.0248133 -0.00752354 0.0120924 2650 
857 1 -0.00106057 0.00139236 -0.0149954 0.000116 -0.0623021 0.0193526 0.00200378 2650 
3587 1 -0.00699763 0.00298789 -0.0144519 0.000116 -0.0152422 -0.0151231 -0.00566973 2650 
150 1 -0.00668008 0.00265166 -0.0147567 0.000423 -0.0551283 0.0175519 0.0264808 2650 
220 1 -0.00350914 0.00300409 -0.014421 4.2e-05 0.00197382 0.00663681 0.00671825 2650 
1388 1 -0.00340141 0.00534557 -0.0148943 0.000116 -0.039288 0.0021603 0.0169103 2650 
3365 1 -0.002315 0.00506402 -0.014552 0.000116 0 -0.011753 0 2650 
4227 1 -0.000583596 0.00576677 -0.0143529 0.000116 0.00143204 -0.0228975 -0.0290312 2650 
963 1 -0.00713538 0.00714838 -0.0143238 0.000116 0.00350227 -0.00324664 0.0156587 2650 
2313 1 -0.00413316 0.00726809 -0.0144872 0.000656 0.0121795 0.0249345 0.010824 2650 
2222 1 -0.000778658 0.0076701 -0.0142415 0.000423 -0.00549102 -0.00568171 -0.00117535 2650 
581 1 -0.00564096 0.00804444 -0.0146019 0.000423 -0.000593495 -0.0101803 -0.00423903 2650 
3669 1 -0.000101367 0.0102397 -0.014835 0.000423 0.00311727 -0.00583333 -0.00141597 2650 
1228 1 -0.00159992 0.0107643 -0.0149805 0.000423 -0.0026547 0.0243513 0.000515369 2650 
1173 1 -0.00841431 0.055134 -0.014421 0.000116 -0.116035 0.351461 0.088319 2650 
2827 1 -0.00633139 -0.00258947 -0.0141466 0.000116 -0.0201753 -0.0226203 0.0017234 2650 
186 1 -0.00175566 -0.00296049 -0.0140675 0.000116 -0.0548922 -0.0357269 0.0179676 2650 
269 1 -0.000315909 -0.00251887 -0.0141983 0.000423 -0.0067037 -0.0325502 -0.00931701 2650 
2332 1 -0.0050144 -0.000340814 -0.013799 0.000423 -0.0114447 -0.00779769 0.00753018 2650 
623 1 -0.00716604 2.46155e-05 -0.0139561 0.000116 -0.0192086 -0.00896372 0.0230222 2650 
2922 1 -0.00716432 0.00140294 -0.01401 0.000116 -0.00925852 -0.000802711 0.00675368 2650 
676 1 -0.00411902 0.00215959 -0.0139774 0.000423 -0.0247905 0.00447638 0.0282863 2650 
2512 1 -0.00836578 0.00315531 -0.013528 0.000116 0.018779 -0.0192413 0.00230208 2650 
1032 1 -0.00648624 0.00339072 -0.0137355 0.000423 0.0299121 -0.00820922 0.0127278 2650 
1684 1 -4.72163e-05 0.00351608 -0.0137937 0.000423 -0.00348729 -0.0115683 0.00145358 2650 
2913 1 -0.00864639 0.00536099 -0.0136267 0.000116 -0.0140945 -0.0228944 -0.00540615 2650 
1192 1 -0.00619449 0.00476983 -0.0134837 0.000116 -0.0160738 0.0171838 -0.0228619 2650 
2918 1 -0.00758553 0.00591773 -0.0141854 0.000116 0.0149777 0.0131491 0.0124233 2650 
2344 1 -0.000562787 0.0058224 -0.0135981 0.000423 0.00575909 -0.0231993 -0.0217047 2650 
2322 1 -0.00886486 0.0065031 -0.0135088 0.000656 -0.00551701 -0.0136996 -0.00131915 2650 
1288 1 -0.002467 0.00636702 -0.014044 0.000116 0 -0.011753 0 2650 
1618 1 -0.00986188 0.00760573 -0.0135789 0.000116 -0.0137545 -0.0162658 0.0115936 2650 
3515 1 -0.00783042 0.00724464 -0.0139738 0.000656 -0.0100504 -0.00967393 0.00145301 2650 
1250 1 -0.00841253 0.00800064 -0.013424 0.000423 -0.00730125 -0.00574558 -0.000431452 2650 
4257 1 -0.00781501 0.00808076 -0.0137388 0.000116 -0.00578911 -0.00907208 0.00958653 2650 
1769 1 -0.00725728 0.00862039 -0.0138713 0.000656 -0.0119975 -0.000929742 -0.00815259 2650 
1237 1 -0.00937514 0.00877115 -0.0134872 0.000423 0.00185642 0.0116668 0.000957015 2650 
4190 1 -0.00861575 0.00872896 -0.0140356 0.000423 0.00475473 0.00488139 -0.00345892 2650 
2092 1 -0.00589125 0.00907723 -0.0141093 0.000656 -0.0434988 0.00182259 -0.0432859 2650 
1476 1 -0.00714165 0.00985374 -0.013435 0.000423 -0.00430855 0.00299287 4.96068e-07 2650 
1827 1 -0.00699099 0.0100555 -0.014137 0.000116 0.0104858 0.011057 0.025833 2650 
1409 1 -0.00044 0.010147 -0.013868 0.000116 0 -0.011753 0 2650 
478 1 -0.00670845 0.0151493 -0.0136083 0.000423 0.0184535 0.00116934 0.020279 2650 
1195 1 -0.00883577 0.026942 -0.0135271 0.000116 0.0557766 0.0782116 -0.0138054 2650 
2643 1 -0.00460321 0.0295797 -0.0141042 0.000656 -0.0823633 0.0688822 0.0201377 2650 
352 1 -0.00299692 0.0359975 -0.0138189 0.000423 0.0736471 -0.159457 0.0441779 2650 
4245 1 -0.00956856 0.0502948 -0.0134597 0.000116 -0.108278 0.145073 0.0575558 2650 
1022 1 -0.0033689 -0.000883105 -0.0133577 0.000423 -0.00789737 0.00635626 0.0363748 2650 
3191 1 -0.00848856 -0.000194218 -0.0126462 0.000656 -0.0137519 -0.00733615 -0.00341624 2650 
3551 1 -0.00743253 0.000586889 -0.01265 0.000423 -0.015336 0.00523015 0.00637389 2650 
4126 1 -0.00640798 0.00065908 -0.0130118 0.000116 -0.0261531 0.0084042 0.00402279 2650 
2525 1 -0.004063 0.000594018 -0.013231 4.2e-05 0 -0.011753 0 2650 
2619 1 -0.005851 0.00141002 -0.012854 0.000116 0 -0.011753 0 2650 
3477 1 -0.00550383 0.00137645 -0.0128659 0.000116 0.0183398 -0.0587002 0.0125841 2650 
3880 1 -0.010277 0.00232602 -0.012913 0.000423 0 -0.011753 0 2650 
2609 1 -0.00886 0.00213402 -0.013248 0.000116 0 -0.011753 0 2650 
3733 1 -0.0079351 0.00219732 -0.0127903 0.000656 -0.023221 0.0173181 0.0154659 2650 
4165 1 -0.00517438 0.00209313 -0.0132302 0.000656 0.000175449 -0.0318835 0.00808201 2650 
3917 1 -0.003984 0.00289502 -0.012703 0.000116 0 -0.011753 0 2650 
2059 1 -0.003583 0.00310402 -0.012756 0.000116 0 -0.011753 0 2650 
3316 1 -0.00926815 0.00368814 -0.0128418 0.000423 -0.00544519 -0.0183171 -0.00879554 2650 
1171 1 -0.00788482 0.00351428 -0.0134009 0.000116 0.0131753 -0.0110464 0.0150896 2650 
3446 1 -0.00156302 0.00471242 -0.0128517 0.000423 0.014297 -0.016402 -0.00312272 2650 
1427 1 -0.002948 0.00543502 -0.013376 4.2e-05 0 -0.011753 0 2650 
4078 1 -0.0104453 0.00584539 -0.0127781 0.000423 0.00120079 -0.00389641 0.0139856 2650 
3950 1 -0.00710356 0.00581382 -0.0129395 0.000656 0.000588401 -0.011021 0.0254098 2650 
2912 1 -0.00550325 0.00571627 -0.0131706 0.000116 0.00196064 0.0151142 0.00117299 2650 
1611 1 -0.00506316 0.00605542 -0.0128262 0.000116 0.0134772 -0.0209987 -0.0751807 2650 
3259 1 -0.0088996 0.00699006 -0.012807 0.000116 0.00136236 -0.0113258 0.00321419 2650 
3702 1 -0.00112784 0.00704209 -0.0129857 0.000116 0.051128 0.0233268 -0.0546565 2650 
445 1 -0.00986315 0.00710628 -0.0127639 0.000656 -0.00772698 -0.00205071 -0.00501702 2650 
1795 1 -0.008905 0.00760782 -0.012839 0.000423 -0.00333027 -0.00705618 0.0037936 2650 
4179 1 -0.00769436 0.00729564 -0.0127752 0.000423 -0.00767678 -0.0221048 -0.00852388 2650 
2483 1 -0.00777893 0.00864286 -0.0129756 0.000116 0.0222317 -0.00887276 -0.000700143 2650 
450 1 -0.00566925 0.0084089 -0.0127454 0.000656 0.013211 0.0358504 0.00701127 2650 
205 1 -0.000744 0.00815102 -0.01334 0.000116 0 -0.011753 0 2650 
2453 1 -0.00615332 0.00946692 -0.0128371 0.000423 -0.00937165 0.0378174 -0.00987832 2650 
3847 1 -0.00949511 0.0096284 -0.01284 0.000656 0.00223772 0.0142639 -0.00523739 2650 
2781 1 -0.005938 0.0101912 -0.0132975 0.000423 -0.00442793 0.0056962 -0.0279247 2650 
1775 1 -0.00823303 0.0109429 -0.0130675 0.000423 -7.29146e-05 -0.011186 -0.000346901 2650 
1986 1 -0.00245486 0.0107394 -0.0130755 0.000656 0.00762539 0.0149956 0.0116892 2650 
3150 1 -0.000332663 0.0110013 -0.0131174 0.000116 -0.0182263 -0.0087302 -0.0269448 2650 
3163 1 -0.00697381 0.0117126 -0.0127342 0.000116 -0.0370466 0.0283549 -0.0433006 2650 
1802 1 -0.0037724 0.012432 -0.0128711 0.000423 0.00500259 -0.000364755 -0.0111755 2650 
949 1 -0.00771331 0.0128854 -0.0131585 0.000116 -0.0176518 0.0277962 -0.00593252 2650 
3106 1 -0.0102204 0.0135903 -0.0128931 0.000423 -0.0206172 0.0214611 0.0323953 2650 
1143 1 -0.000313873 0.0152592 -0.0129654 0.000423 0.0070315 0.0110531 -0.00616027 2650 
2466 1 -0.00870464 0.0190473 -0.0129178 0.000423 0.048327 0.0396991 -0.0547289 2650 
1124 1 -0.00570381 0.0344935 -0.0126362 0.000423 0.115227 0.0704534 -0.0460588 2650 
3279 1 -0.0027774 0.0480479 -0.0133186 0.000116 0.0698602 -0.118112 -0.0910458 2650 
2021 1 -0.0089123 0.0554904 -0.0130271 0.000423 0.116353 0.19793 -0.0604576 2650 
4097 1 -0.00811643 -0.00280135 -0.0126222 0.000423 0.0222564 -0.0142204 -0.0225559 2650 
1763 1 -0.001143 -0.00271998 -0.012442 0.000656 0 -0.011753 0 2650 
3576 1 -0.00641236 -0.00151018 -0.012257 0.000116 0.0561059 0.00120064 -0.0311085 2650 
222 1 -0.00327922 -0.00131299 -0.0119191 0.000656 -0.0154066 -0.0201332 0.053235 2650 
1422 1 -0.003881 -0.000873982 -0.012349 4.2e-05 0 -0.011753 0 2650 
3599 1 -0.00185914 -0.00110601 -0.0121531 0.000116 0.00758272 -0.00512374 -0.0536854 2650 
2468 1 -0.00681141 -0.000630806 -0.0121172 0.000423 -0.0504222 0.0211365 0.000191011 2650 
1799 1 -0.0032257 -7.13421e-05 -0.0120536 0.000423 7.10678e-05 -0.0118308 4.63239e-05 2650 
3389 1 -0.010415 0.00139202 -0.012026 0.000116 0 -0.011753 0 2650 