ITEM: TIMESTEP
9037926
ITEM: NUMBER OF ATOMS
4311
ITEM: BOX BOUNDS ff ff ff
-0.15 0.15
-0.15 0.06
-0.15 0.15
ITEM: ATOMS id type x y z radius vx vy vz density 
2527 1 -0.00860794 -0.0607042 -0.0679374 4.2e-05 2.2455 0.375018 -1.43656 2650 
3974 1 -0.0113866 -0.0600357 -0.0676261 0.000423 0.613871 -0.131335 -0.103361 2650 
4036 1 -0.0183146 -0.0543373 -0.0664048 0.000116 0.796063 -0.0724914 -0.219556 2650 
2081 1 -0.0192924 -0.0505898 -0.0662043 4.2e-05 -4.87069 -0.295993 1.41936 2650 
3192 1 -0.0216125 -0.0583572 -0.0648391 0.000656 -2.56824 -0.603061 0.856061 2650 
1471 1 -0.0235176 -0.0623094 -0.0640006 0.000423 6.32663 0.0238123 -4.66364 2650 
1050 1 -0.0308454 -0.0568417 -0.0615773 0.000116 -0.883269 2.22633 0.0797162 2650 
3260 1 -0.0311274 -0.0587621 -0.06145 0.000116 4.21836 0.499949 -2.13681 2650 
2201 1 -0.0296934 -0.0583839 -0.0615589 0.000656 2.06161 -0.322839 -0.994478 2650 
3688 1 -0.0323249 -0.0561861 -0.0608286 0.000116 -3.02435 0.182096 1.60717 2650 
1856 1 -0.0312192 -0.055587 -0.0614035 0.000116 0.339635 0.123281 -0.17268 2650 
935 1 -0.0321924 -0.0538633 -0.0605524 0.000423 1.28281 -0.453486 -0.681998 2650 
1081 1 -0.0327567 -0.0525478 -0.0605972 0.000116 -0.703899 -0.222159 0.380503 2650 
1290 1 -0.0351561 -0.0586488 -0.0592374 0.000116 1.31069 0.201275 -0.777868 2650 
3619 1 -0.0378009 -0.0486347 -0.0576741 4.2e-05 1.32707 0.536082 -0.869789 2650 
1417 1 -0.037701 -0.0517699 -0.0576512 0.000116 9.1372 -6.74395 -5.97528 2650 
758 1 -0.0399983 -0.0624688 -0.055997 0.000116 3.91689 0.0245421 0.353394 2650 
854 1 -0.0405269 -0.0609396 -0.0557009 0.000116 1.14502 -0.553172 -0.833093 2650 
1185 1 -0.0450066 -0.0553211 -0.0521482 0.000116 7.68596 0.762435 -6.63338 2650 
51 1 -0.047421 -0.046107 -0.0495398 0.000423 0.606097 -0.0596555 -0.580174 2650 
3391 1 -0.0489854 -0.0626945 -0.0485349 4.2e-05 4.19836 0.782163 -4.23737 2650 
4376 1 -0.0494089 -0.0607102 -0.0447078 4.2e-05 5.25015 2.63284 -4.12452 2650 
518 1 -0.0539908 -0.0626352 -0.0427788 0.000116 5.39834 0.0117255 -6.8132 2650 
4210 1 -0.0539341 -0.0451716 -0.0423563 0.000423 -0.211227 -1.05349 0.268965 2650 
3000 1 -0.0545079 -0.0616768 -0.0416154 0.000423 -0.0140348 0.122125 0.0183827 2650 
4139 1 -0.0562829 -0.0590076 -0.0397147 0.000116 0.704052 -0.253489 -0.997768 2650 
1316 1 -0.0562499 -0.0497211 -0.0398894 4.2e-05 2.3592 0.925392 -3.32682 2650 
646 1 -0.0571314 -0.0608356 -0.0384844 0.000116 9.26465 0.055695 -13.7537 2650 
2829 1 -0.0579394 -0.0588563 -0.0372565 0.000116 0.29205 0.441485 -0.454181 2650 
3139 1 -0.0548927 -0.0620332 -0.036601 0.000116 8.17207 0.477461 -5.19445 2650 
3088 1 -0.0584627 -0.0574817 -0.0358481 0.000423 3.26587 0.937151 -5.32613 2650 
4377 1 -0.0595929 -0.0561897 -0.0346972 4.2e-05 -1.62453 -5.45809 2.79016 2650 
3753 1 -0.0609029 -0.0527217 -0.0315246 0.000423 1.83689 1.67069 -3.54869 2650 
3586 1 -0.0627198 -0.0512162 -0.0284824 0.000116 0.899774 0.531871 -1.98135 2650 
2072 1 -0.0672787 -0.0581966 -0.0147852 0.000116 0.566322 0.671158 -2.577 2650 
1816 1 -0.0678022 -0.0596019 -0.0121606 0.000116 0.074622 -0.0747939 -0.41606 2650 
3054 1 -0.0683669 -0.0571157 -0.00842519 0.000116 -0.0945424 -1.06898 0.767173 2650 
2848 1 -0.0689548 -0.0532799 0.000670282 4.2e-05 -0.00224481 0.021409 -0.230933 2650 
1231 1 -0.0675407 -0.0522558 0.0118827 0.000423 0.197204 -0.195265 1.12089 2650 
3090 1 -0.0673612 -0.0588251 0.0128616 0.000423 0.189378 0.0590333 0.991849 2650 
1805 1 -0.0668346 -0.0464725 0.015365 0.000423 -0.06779 -0.506076 -0.294872 2650 
3174 1 -0.0547994 -0.0467602 0.020019 4.2e-05 -6.29107 -1.87471 -10.1307 2650 
2816 1 -0.0655231 -0.0454987 0.0212543 0.000116 -0.489378 -1.06178 -1.50866 2650 
3372 1 -0.0643878 -0.0549372 0.0244793 0.000116 -1.11851 -0.86913 -2.942 2650 
2833 1 -0.0592799 -0.062115 0.0309937 0.000116 0.526967 0.255612 -6.40101 2650 
4331 1 -0.0605456 -0.0454243 0.032852 0.000116 1.26261 -1.49096 2.32697 2650 
843 1 -0.0603432 -0.0503333 0.0332222 0.000116 0.264482 -0.0785745 0.480392 2650 
849 1 -0.0586341 -0.0566265 0.0361533 0.000116 -0.260874 -1.30737 -0.42309 2650 
239 1 -0.0574033 -0.0522957 0.0375207 0.000423 0.720829 0.456452 1.1028 2650 
1278 1 -0.0559131 -0.061192 0.0402268 0.000116 1.0771 -2.34738 1.2432 2650 
2386 1 -0.0563825 -0.0562861 0.0395731 0.000116 -0.541027 -1.82719 -0.770838 2650 
2166 1 -0.055028 -0.05868 0.041436 0.000116 -2.75709 -1.03135 -3.66148 2650 
578 1 -0.0543958 -0.0470813 0.0417619 0.000423 -1.3809 0.157688 -1.79865 2650 
4025 1 -0.0543414 -0.0560655 0.0423324 0.000116 -1.09384 -0.572944 -1.40415 2650 
1784 1 -0.0535826 -0.0565499 0.0428002 0.000423 0.630904 -0.22265 0.789844 2650 
3549 1 -0.0527933 -0.0591037 0.04377 0.000423 -0.834074 0.0503875 -1.00602 2650 
3181 1 -0.0527196 -0.0611298 0.0442204 4.2e-05 -6.80448 0.407903 -10.877 2650 
394 1 -0.0510952 -0.0523185 0.0461985 0.000116 0.99247 -0.449684 1.09767 2650 
3891 1 -0.0500286 -0.0622837 0.0469051 0.000423 0.251087 0.232582 0.26782 2650 
3566 1 -0.0456341 -0.0521014 0.0515999 0.000116 -1.45841 -0.843049 -1.2898 2650 
1030 1 -0.0367228 -0.0489269 0.0579171 0.000423 1.61949 0.0748767 1.02685 2650 
2487 1 -0.037571 -0.0461545 0.057736 0.000116 -0.488634 -0.473162 -0.317973 2650 
800 1 -0.0308482 -0.0622856 0.0612482 0.000423 2.30737 0.289142 1.16215 2650 
2083 1 -0.0306441 -0.0580959 0.0617735 4.2e-05 -6.22896 -2.11846 -3.09492 2650 
2064 1 -0.0305656 -0.0571124 0.0617315 0.000116 -8.88716 1.30203 -4.40036 2650 
2186 1 -0.0289372 -0.0553264 0.0625114 0.000116 -9.61294 0.98425 -4.44993 2650 
4345 1 -0.0246883 -0.0546051 0.0643079 0.000116 -0.314026 0.508446 -0.120557 2650 
1903 1 -0.0224421 -0.0583193 0.064802 0.000423 -2.70584 -0.56418 -0.937082 2650 
3933 1 -0.0228168 -0.0520658 0.0649955 0.000116 0.82245 -0.0274391 0.288722 2650 
1537 1 -0.0157946 -0.0624424 0.0671248 4.2e-05 -0.528277 -2.20098 -0.124305 2650 
1655 1 -0.00828348 -0.0619885 0.0678431 0.000656 -8.241 0.0527613 -1.00621 2650 
3615 1 -0.00407016 -0.032696 -0.0686508 4.2e-05 -3.27668 -2.26833 1.22546 2650 
2148 1 -0.00428533 -0.0109327 -0.0687507 0.000116 -0.21832 -1.13929 0.0136082 2650 
1056 1 -0.000731038 -0.000459432 -0.0688802 0.000116 -0.161452 -0.0342466 0.00171351 2650 
3418 1 -0.00344992 -0.0322341 -0.0684912 0.000423 -1.10848 0.211663 0.055686 2650 
2091 1 -0.000422941 -0.021737 -0.0683449 0.000656 -2.16749 0.423288 0.0134132 2650 
333 1 -0.00545955 -0.0151887 -0.0681278 0.000656 -1.84319 -0.453478 0.1475 2650 
50 1 -0.00494645 -0.0130073 -0.0683994 0.000423 0.726672 2.26973 -0.0518663 2650 
378 1 -0.00144211 -0.0112849 -0.0685629 0.000423 -1.19474 -0.39819 0.0251295 2650 
1466 1 -0.00850014 -0.00662189 -0.0680493 0.000423 -2.71877 -0.126244 0.339607 2650 
1946 1 -0.00753449 -0.00670172 -0.0684708 0.000116 -2.88567 -0.283009 0.317537 2650 
1638 1 -0.00979359 -0.00630512 -0.0681844 0.000116 -0.595607 0.226365 0.0855493 2650 
715 1 -0.00776855 -0.00617818 -0.0681366 0.000423 -2.76017 -0.0256222 0.314699 2650 
1447 1 -0.009287 -0.00375452 -0.0679463 0.000423 -2.2433 0.051965 0.306617 2650 
3585 1 -0.00876333 -0.00323916 -0.0683244 0.000116 -2.29848 0.0531172 0.294804 2650 
1760 1 -0.00895297 -0.00243489 -0.0683744 4.2e-05 -2.24281 0.262366 0.293675 2650 
1443 1 -0.00718071 -0.00278112 -0.0682011 0.000423 -1.77401 0.232514 0.186776 2650 
1436 1 -0.00720882 -0.00171595 -0.067965 0.000656 -2.1589 0.19033 0.228956 2650 
3850 1 -0.00532553 -0.0016235 -0.068371 0.000423 -2.14667 -0.0973949 0.167208 2650 
1458 1 -0.0064798 -0.000927469 -0.0682712 0.000423 -2.23012 0.126976 0.211666 2650 
3038 1 -0.0121796 -0.0438894 -0.0677988 0.000116 5.16241 1.20961 -0.927388 2650 
1206 1 -0.0126207 -0.0346472 -0.0677933 4.2e-05 4.11039 -0.486089 -0.765208 2650 
4353 1 -0.0142172 -0.0331856 -0.067401 0.000116 -3.65987 -0.238028 0.771995 2650 
1136 1 -0.0116063 -0.0226546 -0.0675888 0.000423 -0.883438 -0.25817 0.151704 2650 
2028 1 -0.0140975 -0.0126329 -0.0671134 0.000423 -1.91736 -0.0100097 0.402751 2650 
2563 1 -0.0138245 -0.00450123 -0.0671702 0.000423 -2.12144 -0.16009 0.436618 2650 
2691 1 -0.0133676 -0.0024144 -0.0672626 0.000423 -1.50692 -0.0642857 0.299482 2650 
1046 1 -0.013252 -0.00170236 -0.0675974 0.000116 -1.18571 -0.329665 0.23245 2650 
34 1 -0.0099299 -0.00162088 -0.0678553 0.000423 -2.03953 -0.0259269 0.298463 2650 
1249 1 -0.0133968 -0.00106839 -0.0672568 0.000423 -1.55253 -0.169849 0.309193 2650 
2626 1 -0.0126377 -0.0013075 -0.0677149 0.000116 -2.39145 0.290715 0.44632 2650 
1419 1 -0.0124261 -0.00112615 -0.0677541 0.000116 -2.48629 0.893271 0.455988 2650 
245 1 -0.0139533 -0.000440042 -0.0671436 0.000423 -1.38638 0.00731087 0.288209 2650 
2514 1 -0.0129436 -0.000692003 -0.0676571 0.000116 -1.6904 0.248858 0.323394 2650 
1838 1 -0.00743234 -0.0401367 -0.0666976 0.000116 -4.36734 1.42724 -2.09991 2650 
1336 1 -0.0144766 -0.0274516 -0.0670327 0.000423 -1.39313 -0.195171 0.300865 2650 
3219 1 -0.0170529 -0.020034 -0.0664267 0.000423 1.83544 0.0317509 -0.570382 2650 
1510 1 -0.0163592 -0.0196336 -0.0669134 0.000116 -2.09135 -2.97985 0.511299 2650 
1320 1 -0.0169884 -0.0106179 -0.0668326 4.2e-05 -4.68241 2.35596 1.19024 2650 
42 1 -0.0146238 -0.000935515 -0.0670007 0.000423 -1.2011 -0.253264 0.262099 2650 
4084 1 -0.0188663 -0.0100705 -0.0659319 0.000423 -1.98295 0.554213 0.567419 2650 
555 1 -0.0179975 -0.00454639 -0.065934 0.000656 -1.35074 0.0556166 0.368699 2650 
3140 1 -0.00442112 -0.0428421 -0.0652292 0.000116 6.91103 -0.264814 -3.10842 2650 
1849 1 -0.0227902 -0.0411637 -0.0650048 0.000116 -1.58548 -1.27424 0.555858 2650 
2779 1 -0.0211271 -0.00770316 -0.0652426 0.000423 -1.86294 -0.255547 0.603263 2650 
1323 1 -0.0225003 -0.0274259 -0.0645363 0.000656 0.180727 -0.437106 -0.0630097 2650 
3840 1 -0.0227908 -0.0257522 -0.0644343 0.000656 -1.73596 0.194641 0.614017 2650 
827 1 -0.0243955 -0.0227641 -0.0644196 0.000116 -3.66408 -2.52748 1.38758 2650 
3426 1 -0.0242377 -0.0160344 -0.064152 0.000423 -0.0617222 0.55597 0.0233197 2650 
3058 1 -0.0207896 -0.0044612 -0.0649621 0.000116 -3.22469 -0.121343 -10.0907 2650 
1987 1 -0.0259841 -0.0176449 -0.0632141 0.000656 -0.208147 0.228968 0.0855587 2650 
3425 1 -0.0264589 -0.0101787 -0.0632683 0.000423 -2.29502 0.521215 0.959781 2650 
739 1 -0.0292185 -0.0310713 -0.0623803 0.000116 -2.64957 -1.02534 1.24104 2650 
3037 1 -0.0280678 -0.0315833 -0.0629064 0.000116 -2.06918 -1.64183 0.923236 2650 
1572 1 -0.0268799 -0.0244896 -0.0630906 0.000423 -2.59798 0.168944 1.10687 2650 
322 1 -0.0275335 -0.0111231 -0.0630007 4.2e-05 -3.71274 -0.775774 1.34749 2650 
1135 1 -0.0268969 -0.00333633 -0.0630833 0.000423 0.497578 0.442591 -0.212153 2650 
3946 1 -0.0282822 -9.07136e-05 -0.0627195 4.2e-05 0.28078 0.199816 -0.94542 2650 
693 1 -0.0273337 -0.000657835 -0.0628953 0.000423 -0.101252 -0.420205 0.0440059 2650 
306 1 -0.0308172 -0.0153263 -0.0616062 0.000116 -1.75911 -2.05917 0.879961 2650 
56 1 -0.0298374 -0.0131245 -0.0617469 0.000423 -2.43156 0.0814219 1.17498 2650 
3143 1 -0.0294452 -0.0122598 -0.0622736 0.000116 -2.17548 -0.494213 1.02865 2650 
3785 1 -0.0306478 -0.00439629 -0.0616906 0.000116 -0.0381397 -1.33419 0.0189478 2650 
223 1 -0.0280383 -0.00201161 -0.0623302 0.000656 -1.60921 -0.308565 0.723885 2650 
1296 1 -0.0320663 -0.0189907 -0.0609654 0.000116 -1.18263 -0.331664 0.622033 2650 
1312 1 -0.0318588 -0.0140654 -0.0611574 4.2e-05 -0.134626 -1.38599 0.0701312 2650 
229 1 -0.0312404 -0.0114951 -0.0607885 0.000656 -2.43024 -0.0419073 1.24897 2650 
2966 1 -0.0309255 -0.0102267 -0.0609493 0.000656 -2.24011 -0.080514 1.1366 2650 
3013 1 -0.0318355 -0.0392627 -0.0607408 0.000423 -0.632776 -1.3774 0.331651 2650 
902 1 -0.0345276 -0.0413178 -0.059252 0.000423 -1.38294 -0.394653 0.80587 2650 
1107 1 -0.0327798 -0.0268073 -0.0599723 0.000656 -0.820512 -0.494936 0.448477 2650 
3399 1 -0.0355344 -0.0303668 -0.0590975 4.2e-05 -0.465191 0.300307 0.279712 2650 
577 1 -0.0356498 -0.0289761 -0.0585836 0.000423 -1.34126 -0.468533 0.816192 2650 
3514 1 -0.0342025 -0.0247883 -0.0591725 0.000656 -0.867833 -0.0383141 0.501619 2650 
817 1 -0.0354544 -0.0131723 -0.0587021 0.000423 -1.3287 0.131613 0.802499 2650 
2246 1 -0.0381966 -0.0081457 -0.0569559 0.000423 -1.26319 -0.140443 0.847141 2650 
2132 1 -0.0383197 -0.0189012 -0.0568731 0.000423 1.85809 -0.152532 -1.25194 2650 
3649 1 -0.0386037 -0.00146888 -0.0566807 0.000423 -1.71511 -0.254717 1.16811 2650 
1961 1 -0.0406628 -0.0172834 -0.0556018 0.000116 -2.75258 -0.440206 2.01302 2650 
3096 1 -0.0410963 -0.0297024 -0.0549003 0.000423 -1.12195 -0.392437 0.839851 2650 
1593 1 -0.0408992 -0.0280209 -0.0550473 0.000423 -1.85552 -0.0723383 1.37862 2650 
197 1 -0.0417631 -0.00115597 -0.0547801 0.000116 1.22283 1.154 -0.932259 2650 
1218 1 -0.0417609 -0.0276036 -0.0541039 0.000656 -1.87889 -0.126229 1.45025 2650 
2238 1 -0.04261 -0.000723487 -0.0537339 0.000423 -1.01563 -0.0470337 0.805378 2650 
2098 1 -0.0437472 -0.0320384 -0.0525108 0.000656 -2.01886 0.188322 1.68193 2650 
2038 1 -0.0449493 -0.0237891 -0.0521975 0.000116 1.08656 -1.3516 -0.935681 2650 
295 1 -0.0441598 -0.000715184 -0.0528671 0.000116 -0.846796 0.256036 0.707327 2650 
3692 1 -0.0453323 -0.0221573 -0.0518653 0.000116 0.175062 0.844385 -0.153011 2650 
1055 1 -0.0465533 -0.0077884 -0.0507722 0.000116 -1.43549 -0.112387 1.3162 2650 
163 1 -0.0460412 -0.00302404 -0.0508247 0.000423 -1.29653 0.372041 1.17451 2650 
1606 1 -0.0465242 -0.00143471 -0.0507988 0.000116 -1.25661 0.199536 1.15086 2650 
1461 1 -0.0462427 -0.000759844 -0.0506415 0.000423 -1.3222 -0.0443756 1.20735 2650 
82 1 -0.0476365 -0.0103221 -0.0497573 0.000116 -1.31075 0.0896896 1.25489 2650 
21 1 -0.0468756 -0.000738482 -0.0500562 0.000423 -1.30903 -0.0374253 1.22586 2650 
3887 1 -0.0478359 -0.0403837 -0.0491394 0.000423 0.25826 0.166968 -0.251409 2650 
2116 1 -0.0480718 -0.0159231 -0.0489087 0.000423 -1.82122 0.226364 1.79005 2650 
3640 1 -0.0462664 -0.0111723 -0.0496071 0.000423 -0.129852 -0.485524 4.08817 2650 
2019 1 -0.0491075 -0.0208213 -0.0478686 0.000423 -1.51802 -0.350242 1.55571 2650 
3947 1 -0.0492403 -0.0160205 -0.0473983 0.000656 -1.84793 -0.0252456 1.91975 2650 
596 1 -0.0497435 -0.0121716 -0.0472074 0.000423 -1.78808 0.449251 1.88414 2650 
2605 1 -0.0513273 -0.0128284 -0.0459405 0.000116 -2.37879 -0.285386 2.65772 2650 
1751 1 -0.0518673 -0.00179589 -0.0454421 4.2e-05 -0.739913 -0.329496 0.844531 2650 
2574 1 -0.0523973 -0.0332996 -0.0442433 0.000423 -1.25019 -0.117323 1.4806 2650 
2827 1 -0.0525676 -0.00558057 -0.0445159 0.000116 -2.06656 -0.126434 2.44034 2650 
3729 1 -0.0527849 -0.0280745 -0.0434161 0.000656 -1.43405 0.32918 1.74351 2650 
3633 1 -0.0525523 -0.0259076 -0.0440591 0.000423 -1.63606 0.349952 1.95144 2650 
1170 1 -0.0538696 -0.0233365 -0.0429312 0.000116 -1.45049 0.64284 1.82006 2650 
3314 1 -0.0541814 -0.00193956 -0.0420395 0.000423 -0.696835 -0.1243 0.898096 2650 
2460 1 -0.054505 -0.0309665 -0.0416191 0.000423 -1.02133 -0.36993 1.33755 2650 
443 1 -0.0543945 -0.0178668 -0.0413818 0.000656 -1.86502 -1.13249 2.45148 2650 
2530 1 -0.0542533 -0.01272 -0.0415668 0.000656 -1.92407 0.360875 2.51131 2650 
3375 1 -0.0549783 -0.0015259 -0.0410588 0.000116 -1.61538 0.224953 1.43069 2650 
1825 1 -0.055257 -0.0447061 -0.0411302 0.000116 4.43643 -1.27751 -5.96019 2650 
1914 1 -0.0551027 -0.026795 -0.0408245 0.000423 -0.236327 -0.07129 0.318981 2650 
3084 1 -0.055447 -0.0364266 -0.0399604 0.000656 -1.3002 -0.157733 1.80409 2650 
3978 1 -0.0561868 -0.0336973 -0.0393191 0.000423 -0.990153 0.0635287 1.4149 2650 
186 1 -0.0569137 -0.00657578 -0.0388053 0.000116 -1.81017 -0.15245 2.65489 2650 
681 1 -0.0566639 -0.0335682 -0.0386284 0.000423 -0.902828 0.257111 1.32437 2650 
3079 1 -0.0565472 -0.0318911 -0.0383878 0.000656 -1.26553 0.0262169 1.86419 2650 
2480 1 -0.0571704 -0.0136299 -0.0384261 0.000116 1.43034 0.714861 -2.12806 2650 
2183 1 -0.058256 -0.0322467 -0.0367596 0.000116 -1.08007 -0.388551 1.71168 2650 
3348 1 -0.0581341 -0.0295143 -0.036952 0.000116 -0.281923 1.72831 0.44353 2650 
29 1 -0.05774 -0.0126783 -0.0370006 0.000423 -0.6104 1.0806 0.952539 2650 
3198 1 -0.058474 -0.0290942 -0.0358292 0.000423 -0.12207 0.216934 0.199221 2650 
419 1 -0.0587284 -0.0103267 -0.036 0.000116 -1.58331 -0.168084 2.58293 2650 
2232 1 -0.0588554 -0.0368543 -0.0351993 0.000423 -0.587427 0.190216 0.982215 2650 
3089 1 -0.0605465 -0.0217037 -0.0322036 0.000423 -1.06513 -0.315776 2.00258 2650 
3378 1 -0.0612384 -0.00650903 -0.0315417 0.000116 -0.539621 0.239456 1.04768 2650 
980 1 -0.0618921 -0.0357652 -0.0304069 4.2e-05 2.06629 -0.0542452 -4.20585 2650 
3393 1 -0.0629908 -0.0132532 -0.0280601 4.2e-05 -1.27131 -0.345611 2.85391 2650 
1640 1 -0.0629398 -0.00194665 -0.0281742 4.2e-05 -0.527427 0.109418 1.17825 2650 
2711 1 -0.0638871 -0.0275862 -0.0257578 0.000116 2.17953 0.676947 -5.40589 2650 
3543 1 -0.0635232 -0.0212901 -0.0258407 0.000423 1.37483 -0.116384 -3.39228 2650 
631 1 -0.0639928 -0.0108998 -0.0254941 0.000116 -1.18121 -0.21043 2.96497 2650 
1076 1 -0.0641432 -0.0103652 -0.0251132 0.000116 -0.569081 0.39673 1.45352 2650 
1378 1 -0.0642587 -0.0106748 -0.0248162 0.000116 -0.595363 -0.0333279 1.54162 2650 
2898 1 -0.0642099 -0.0112409 -0.024084 0.000423 0.062127 0.498205 -0.165635 2650 
2117 1 -0.0643073 -0.00331353 -0.0238228 0.000423 -0.991488 0.0105503 2.67643 2650 
689 1 -0.0645023 -0.0120008 -0.0232895 0.000423 0.0655179 0.171893 -0.181457 2650 
3810 1 -0.0652456 -0.0441314 -0.0220919 0.000116 4.86601 -6.43953 -14.3712 2650 
4068 1 -0.0651517 -0.0316945 -0.0214058 0.000423 -0.454936 -0.238699 1.38466 2650 
3602 1 -0.0645943 -0.000560958 -0.0214326 0.000116 -0.91127 -0.130846 -3.51211 2650 
390 1 -0.0658493 -0.0448292 -0.020221 0.000116 0.0692816 0.932577 -0.225614 2650 
208 1 -0.0658459 -0.00323132 -0.0202323 0.000116 -0.207077 1.55952 0.673931 2650 
940 1 -0.0665687 -0.0309034 -0.0177094 0.000116 -0.437348 -0.73389 1.64397 2650 
2768 1 -0.06624 -0.011375 -0.0177543 0.000423 -0.433901 0.0778891 1.61885 2650 
203 1 -0.0666447 -0.00732633 -0.0174213 0.000116 -0.810456 -0.165229 3.10037 2650 
3229 1 -0.0661888 -0.000533428 -0.0179442 0.000423 -0.422029 0.787674 1.5567 2650 
2282 1 -0.0668156 -0.0189272 -0.0167541 0.000116 -0.774472 -0.206692 3.0886 2650 
2765 1 -0.0665175 -0.0169693 -0.0166844 0.000423 0.237184 0.696332 -0.945606 2650 
606 1 -0.000183 0.00194302 -0.016592 0.000116 0 -0.011753 0 2650 
2520 1 -0.000379155 0.00490016 -0.0167645 4.2e-05 0.00271487 -0.00197792 -0.0154802 2650 
66 1 -0.000294772 0.0344539 -0.0168423 0.000116 -0.217432 -0.0137213 0.0406838 2650 
2172 1 -0.00169435 -0.0012345 -0.0165242 0.000116 0.0682862 0.00746542 -0.00852403 2650 
30 1 -0.00140017 -0.00100964 -0.0158993 0.000423 -0.0136125 -0.0214967 0.00834717 2650 
2013 1 -0.00291433 0.00297684 -0.0159541 0.000423 -0.00154235 0.00221798 0.00156406 2650 
2301 1 -0.00427456 0.00378381 -0.0163106 4.2e-05 -0.00116259 -0.0070103 0.00459775 2650 
1679 1 -0.00401457 0.00405541 -0.0159144 0.000423 -0.00453172 0.0157125 0.00260684 2650 
2283 1 -0.00352387 0.00396458 -0.0164232 0.000116 -0.00010552 0.00956354 0.000789399 2650 
1611 1 -0.0045116 0.00519603 -0.015903 0.000116 0.0134772 -0.0209987 -0.0751807 2650 
3121 1 -0.000177287 0.00519452 -0.0161965 0.000423 0.0292403 0.00123583 8.703e-05 2650 
978 1 -0.00318599 0.00645794 -0.0163348 0.000116 0.0180122 -0.00353228 -0.00159853 2650 
3934 1 -0.001977 0.00670502 -0.016218 0.000116 0 -0.011753 0 2650 
3177 1 -0.000237508 0.00865674 -0.0160151 4.2e-05 0.00917698 -0.00185525 -0.00666376 2650 
1483 1 -0.000420985 0.00983698 -0.0161162 0.000423 -0.00134867 0.0112238 -0.0085204 2650 
3007 1 -0.00250853 0.0109163 -0.0160382 0.000423 -0.00351627 -0.00337698 0.014455 2650 
371 1 -0.000523922 0.0108612 -0.0162136 0.000423 0.0024809 0.0249977 -0.0257035 2650 
188 1 -0.00223922 0.0121246 -0.0163885 0.000116 -0.0148612 0.0228045 0.00418427 2650 
2713 1 -0.000726055 0.0136636 -0.0162345 0.000116 0.00037122 0.035974 0.00535071 2650 
2497 1 -0.00524643 0.0240419 -0.0159266 0.000116 0.288973 0.100779 -0.0719928 2650 
3395 1 -0.00490072 0.0252191 -0.0161121 4.2e-05 -0.340151 -0.195356 0.142773 2650 
2084 1 -0.00403717 0.033355 -0.0162733 4.2e-05 0.335 0.103655 -0.0828045 2650 
2021 1 -0.00328808 0.0528129 -0.0161084 0.000423 0.161017 -0.0932862 -0.0357176 2650 
2821 1 -0.0671341 -0.044989 -0.0154285 0.000116 -0.182109 -0.331954 0.792415 2650 
4097 1 -0.00796663 -0.00399412 -0.015455 0.000423 -0.361238 -0.199032 -0.909961 2650 
736 1 -0.00670892 -0.000695897 -0.0150733 0.000116 -0.0307431 -0.0170391 0.0144389 2650 
2399 1 -0.002418 0.00215702 -0.015541 0.000116 0 -0.011753 0 2650 
3637 1 -0.00499337 0.00348012 -0.0156933 0.000423 -0.00704251 0.0124689 0.006236 2650 
4227 1 -0.000524989 0.00482969 -0.0155411 0.000116 0.00143204 -0.0228975 -0.0290312 2650 
2438 1 -0.00594362 0.00726371 -0.0150765 0.000423 -0.00472103 -0.000373669 -0.00125399 2650 
3830 1 -0.006879 0.00825702 -0.015411 4.2e-05 0 -0.011753 0 2650 
233 1 -0.00400798 0.00907506 -0.0150182 0.000423 0.0114684 -0.00558491 0.0116559 2650 
289 1 -0.00303322 0.00972401 -0.0152297 0.000116 -0.00850769 0.000708308 0.0302001 2650 
2969 1 -0.00222223 0.0100496 -0.0150952 0.000656 -0.00775713 0.0181674 -1.8219e-05 2650 
938 1 -0.00145514 0.00989721 -0.0156413 0.000116 -0.00119823 0.000558801 -0.00633771 2650 
3500 1 -0.00243312 0.0107174 -0.0153419 4.2e-05 -0.0454796 -0.00333034 0.0313479 2650 
2793 1 -0.000917079 0.0108363 -0.0152324 0.000423 -0.0129328 0.063764 0.00213141 2650 
70 1 -0.00591164 0.0112175 -0.015231 0.000116 0.0420474 0.0335815 -0.0676972 2650 
2182 1 -0.00114262 0.0113208 -0.0150903 0.000116 -0.0452923 0.0708519 -0.0266197 2650 
3644 1 -0.00116053 0.012971 -0.0156013 0.000423 -0.000399523 0.00418678 0.0157329 2650 
2924 1 -0.00602972 0.014715 -0.0155982 0.000116 -0.0500795 0.0331408 0.0243033 2650 
2466 1 -0.00672683 0.020672 -0.0151576 0.000423 0.048327 0.0396991 -0.0547289 2650 
2585 1 -0.000467162 0.02284 -0.0154209 0.000116 -0.0221426 0.0759057 0.0070692 2650 
4234 1 -0.00464536 0.0305989 -0.0150324 0.000116 -0.0277623 0.0670651 -0.0707711 2650 
4010 1 -0.00661269 0.0408627 -0.0154776 0.000116 -0.0880314 0.0972602 0.0365275 2650 
2863 1 -0.0044265 0.0497653 -0.0150862 0.000656 0.0278245 0.133951 -0.121512 2650 
2234 1 -0.066945 -0.038585 -0.0148765 0.000423 -0.450014 -0.211957 2.02508 2650 
3261 1 -0.0672663 -0.00650678 -0.0148415 0.000116 -0.0833703 -0.291138 0.37786 2650 
1829 1 -0.00810175 -0.00413354 -0.0144742 0.000116 -0.569534 -0.268635 -0.559556 2650 
4244 1 -0.000606824 -0.00255858 -0.0149493 0.000116 -0.0436806 -0.00994679 0.0125723 2650 
1053 1 -0.007469 -0.00168498 -0.014946 0.000116 0 -0.011753 0 2650 
3599 1 -0.00154882 -0.0013157 -0.0143502 0.000116 0.00758272 -0.00512374 -0.0536854 2650 
509 1 -0.00754014 -0.000341461 -0.0148852 0.000116 -0.00480979 -0.0076817 0.0108723 2650 
1991 1 -0.00723478 0.000307251 -0.0143391 0.000656 -0.019376 -0.00203791 0.00870126 2650 
3239 1 -0.00604214 0.00119013 -0.0144294 0.000116 -0.0248133 -0.00752354 0.0120924 2650 
857 1 -0.00361031 0.00218438 -0.0149134 0.000116 -0.0623021 0.0193526 0.00200378 2650 
3365 1 -0.002315 0.00458302 -0.014552 0.000116 0 -0.011753 0 2650 
1192 1 -0.00685232 0.00547308 -0.0144193 0.000116 -0.0160738 0.0171838 -0.0228619 2650 
2344 1 -0.000327094 0.00487296 -0.0144863 0.000423 0.00575909 -0.0231993 -0.0217047 2650 
1204 1 -0.00535947 0.00753663 -0.0146748 4.2e-05 0.0310616 -0.0128877 0.0295818 2650 
581 1 -0.005627 0.00804138 -0.0145556 0.000423 0.00044719 0.0010883 0.00185987 2650 
2313 1 -0.00371458 0.00794893 -0.0146615 0.000656 0.00500542 -0.00556791 -0.044623 2650 
2092 1 -0.00668182 0.00917614 -0.0143244 0.000656 -0.00167296 0.00263094 0.0238503 2650 
86 1 -0.00380094 0.0101204 -0.0149842 0.000116 -0.0196067 0.0126222 0.000798653 2650 
2781 1 -0.00606024 0.0106301 -0.0145856 0.000423 -0.00287998 0.011096 -0.0317373 2650 
3150 1 -0.00107858 0.010644 -0.0142202 0.000116 -0.0182263 -0.0087302 -0.0269448 2650 
1228 1 -0.00170857 0.0117609 -0.0149594 0.000423 -0.0026547 0.0243513 0.000515369 2650 
3163 1 -0.00848996 0.0128731 -0.0145063 0.000116 -0.0370466 0.0283549 -0.0433006 2650 
1839 1 -0.00275689 0.0149869 -0.014829 0.000116 -0.0676852 0.0211351 0.0188737 2650 
148 1 -0.00743271 0.0296765 -0.0147256 0.000423 -0.145516 -0.155086 0.0592808 2650 
1124 1 -0.000988084 0.0373768 -0.0145212 0.000423 0.115227 0.0704534 -0.0460588 2650 
95 1 -0.067339 -0.0258781 -0.0138105 0.000116 0.112706 3.02194 -0.04794 2650 
114 1 -0.0669543 -0.00749912 -0.0137232 0.000656 -0.513116 -0.340034 2.50344 2650 
3470 1 -0.0674626 -0.00646259 -0.0139221 0.000116 -0.153765 -0.57443 0.745103 2650 
2666 1 -0.00503504 -0.00267728 -0.0141882 0.000423 0.0429038 -0.00888448 0.00629481 2650 
1763 1 -0.00216861 -0.00281495 -0.0134575 0.000656 -0.0890582 0.0217677 -0.0881811 2650 
3576 1 -0.0041162 -0.00146104 -0.0135302 0.000116 0.0561059 0.00120064 -0.0311085 2650 
2332 1 -0.00548279 -0.000659938 -0.0134908 0.000423 -0.0114447 -0.00779769 0.00753018 2650 
2922 1 -0.00754323 0.00137009 -0.0137336 0.000116 -0.00925852 -0.000802711 0.00675368 2650 
2512 1 -0.00759724 0.00236785 -0.0134338 0.000116 0.018779 -0.0192413 0.00230208 2650 
2474 1 -0.00155487 0.00278942 -0.0136969 0.000423 0.0307748 -0.0136667 -0.043701 2650 
150 1 -0.00890039 0.00333589 -0.0137017 0.000423 -0.0542472 0.016714 0.0257745 2650 
220 1 -0.00342836 0.00327571 -0.014146 4.2e-05 0.00197382 0.00663681 0.00671825 2650 
889 1 -0.00272304 0.00376704 -0.013442 0.000656 0.0239908 0.0133229 -0.0547828 2650 
4300 1 -0.000510346 0.00384452 -0.0138981 0.000423 0.0157414 0.0249973 -0.0399245 2650 
2913 1 -0.00922322 0.00442403 -0.013848 0.000116 -0.0140945 -0.0228944 -0.00540615 2650 
1388 1 -0.00500929 0.00543399 -0.0142022 0.000116 -0.039288 0.0021603 0.0169103 2650 
2322 1 -0.00902635 0.00594888 -0.0134363 0.000656 -0.00299145 -0.013582 0.00409796 2650 
1288 1 -0.002467 0.00588602 -0.014044 0.000116 0 -0.011753 0 2650 
3515 1 -0.0082284 0.00686756 -0.0139731 0.000656 -0.00927244 -0.00874495 -0.000839897 2650 
2918 1 -0.00697256 0.00645586 -0.013677 0.000116 0.0149777 0.0131491 0.0124233 2650 
963 1 -0.00699205 0.00701551 -0.0136829 0.000116 0.00350227 -0.00324664 0.0156587 2650 
1618 1 -0.00985584 0.0074968 -0.0136101 0.000116 0.0059414 0.00192455 -0.00369393 2650 
1250 1 -0.00871133 0.0077655 -0.0134417 0.000423 -0.00730125 -0.00574558 -0.000431452 2650 
1769 1 -0.00785924 0.00839282 -0.013969 0.000656 -0.0151574 -0.00915465 0.00228284 2650 
2726 1 -9.05073e-05 0.0085122 -0.0136195 0.000116 -0.00741369 0.00988612 -0.041436 2650 
4190 1 -0.00878194 0.0089766 -0.013941 0.000423 -0.00788233 0.00684233 0.00501954 2650 
1476 1 -0.00732889 0.00992946 -0.0134386 0.000423 -0.00473027 0.00118609 -0.000138689 2650 
1827 1 -0.00573475 0.00950121 -0.013917 0.000116 0.0445821 -0.0304485 -0.00868089 2650 
1409 1 -0.00044 0.00966602 -0.013868 0.000116 0 -0.011753 0 2650 
1617 1 -0.000826303 0.0112989 -0.0141193 0.000116 0.00511482 0.0710113 0.047396 2650 
3838 1 -0.00554834 0.0122826 -0.0134422 0.000656 0.0059045 0.0308137 -0.0288407 2650 
93 1 -0.00949435 0.0172843 -0.013532 0.000116 0.0573325 0.04651 -0.0562898 2650 
4231 1 -0.00144305 0.0181573 -0.0140845 0.000116 -0.0134934 0.0153003 0.0304581 2650 
1717 1 -0.00309867 0.0264594 -0.0138887 0.000116 -0.014717 0.0706098 -0.0348682 2650 
1195 1 -0.00655308 0.0301428 -0.0140921 0.000116 0.0557766 0.0782116 -0.0138054 2650 
945 1 -0.0095478 0.0473617 -0.0137085 0.000116 -0.168071 -0.11375 0.123831 2650 
107 1 -0.0615894 -0.000392664 -0.0131223 4.2e-05 7.72891 -0.190613 -5.42353 2650 
3191 1 -0.00913835 -0.000506155 -0.0128415 0.000656 -0.0183475 -0.00795438 -0.00635009 2650 
623 1 -0.00795216 -0.000342229 -0.0130139 0.000116 -0.0192086 -0.00896372 0.0230222 2650 
2619 1 -0.00618656 0.000718523 -0.0127248 0.000116 -0.0137973 -0.0204082 0.00531131 2650 
4165 1 -0.00526779 0.000751685 -0.0128335 0.000656 -0.00295906 -0.0330191 0.0101422 2650 
2525 1 -0.004063 0.000113021 -0.013231 4.2e-05 0 -0.011753 0 2650 
4126 1 -0.0074783 0.00100303 -0.0128471 0.000116 -0.0261531 0.0084042 0.00402279 2650 
3880 1 -0.0103597 0.00198664 -0.0128395 0.000423 -0.0020648 -0.00583391 0.00454369 2650 
2473 1 -0.00924423 0.0019307 -0.0129765 0.000423 0.0167774 -0.00661482 -0.0238345 2650 
2609 1 -0.00886 0.00165302 -0.013248 0.000116 0 -0.011753 0 2650 
3316 1 -0.009491 0.0029385 -0.0132017 0.000423 -0.00544519 -0.0183171 -0.00879554 2650 
1171 1 -0.00734561 0.0030622 -0.0127833 0.000116 0.0131753 -0.0110464 0.0150896 2650 
1032 1 -0.00528834 0.00308272 -0.0132178 0.000423 0.0140776 0.00865188 0.010778 2650 
676 1 -0.00472523 0.00245565 -0.0130652 0.000423 0.0030198 -0.00797062 0.0224423 2650 
3917 1 -0.003984 0.00241402 -0.012703 0.000116 0 -0.011753 0 2650 
2059 1 -0.003583 0.00262302 -0.012756 0.000116 0 -0.011753 0 2650 
1398 1 -0.0104207 0.00398551 -0.0128986 0.000116 0.0662784 -0.0925954 0.14185 2650 
3587 1 -0.00935919 0.00402162 -0.0132909 0.000116 -0.0579635 0.0255056 0.0285778 2650 
3787 1 -0.00669378 0.00411042 -0.0133368 0.000116 -0.0024271 -0.00223267 -0.0195234 2650 
763 1 -0.00658212 0.00457282 -0.0128494 4.2e-05 -0.0107376 -0.0192397 -0.014763 2650 
3446 1 -0.000952975 0.00406869 -0.0130353 0.000423 0.016221 -0.0142776 -0.00742368 2650 
1427 1 -0.002948 0.00495402 -0.013376 4.2e-05 0 -0.011753 0 2650 
3362 1 -0.00262451 0.00482033 -0.0127465 0.000116 0.000350619 -0.00253681 -0.00404217 2650 
445 1 -0.0100597 0.00705118 -0.0127525 0.000656 -0.00236227 -0.000765152 0.00548657 2650 
3259 1 -0.00884384 0.00652654 -0.0126755 0.000116 0.00136236 -0.0113258 0.00321419 2650 
4179 1 -0.00799098 0.00637532 -0.0129305 0.000423 -0.0070231 -0.0226882 -0.00131956 2650 
2912 1 -0.00542301 0.00633483 -0.0131226 0.000116 0.00196064 0.0151142 0.00117299 2650 
1795 1 -0.00901349 0.00732973 -0.0126826 0.000423 -5.39571e-05 -0.00579665 0.00392393 2650 
4257 1 -0.00805193 0.00770948 -0.0133465 0.000116 -0.00578911 -0.00907208 0.00958653 2650 
3364 1 -0.00667101 0.0075049 -0.0132715 0.000116 -0.00179506 0.0163753 -0.0232219 2650 
2222 1 -0.000731995 0.007736 -0.0133386 0.000423 0.00109584 0.00172293 0.0219135 2650 