ITEM: TIMESTEP
8066106
ITEM: NUMBER OF ATOMS
4325
ITEM: BOX BOUNDS ff ff ff
-0.15 0.15
-0.15 0.06
-0.15 0.15
ITEM: ATOMS id type x y z radius vx vy vz density 
3688 1 -0.00298605 -0.056001 -0.0688194 0.000116 1.17318 0.846719 -0.0509039 2650 
3143 1 -0.00389116 -0.0507894 -0.0687743 0.000116 15.5408 4.50946 -0.879288 2650 
259 1 -0.00877145 -0.0554028 -0.0680148 0.000423 0.957635 0.423308 -0.1235 2650 
4132 1 -0.00955852 -0.0550391 -0.0682177 0.000116 0.480894 0.333881 -0.0673818 2650 
1081 1 -0.00892183 -0.0470712 -0.0683039 0.000116 -0.79342 -0.124659 0.103636 2650 
2169 1 -0.0124885 -0.0568594 -0.0677426 0.000116 3.72235 -2.93771 -0.686222 2650 
4366 1 -0.0239835 -0.0577763 -0.0645741 0.000116 -0.415551 -0.254829 0.15434 2650 
3000 1 -0.0254926 -0.0477799 -0.0636638 0.000423 -1.9329 0.329753 0.773982 2650 
2232 1 -0.0278765 -0.0451002 -0.0626566 0.000423 -2.06128 0.43124 0.917083 2650 
3974 1 -0.0298343 -0.0582034 -0.0617484 0.000423 0.525139 -0.0474424 -0.253726 2650 
29 1 -0.0311851 -0.0464083 -0.0610773 0.000423 -0.766504 1.07017 0.391365 2650 
3810 1 -0.0338846 -0.062684 -0.0599739 0.000116 12.5562 2.38386e-08 -7.09414 2650 
753 1 -0.0362065 -0.0589299 -0.0586014 0.000116 11.7615 0.577103 -7.26674 2650 
3073 1 -0.0388609 -0.0565143 -0.0569652 4.2e-05 3.79993 -1.15221 -2.59226 2650 
4036 1 -0.041496 -0.0513878 -0.0549827 0.000116 0.659135 -0.114252 -0.497456 2650 
1856 1 -0.0412735 -0.0455649 -0.0550576 0.000116 6.27157 -0.985348 -4.95337 2650 
2606 1 -0.0418981 -0.0625381 -0.0543098 0.000116 14.2918 0.0138713 -9.67772 2650 
1058 1 -0.0456105 -0.0502989 -0.0516208 0.000116 0.658036 -0.515143 -0.58142 2650 
295 1 -0.0450887 -0.0465049 -0.0520772 0.000116 1.24433 0.905369 -1.07734 2650 
1833 1 -0.0479781 -0.0618602 -0.049428 0.000116 5.77033 0.778528 -5.60107 2650 
3619 1 -0.0502388 -0.0481724 -0.0472364 4.2e-05 5.67283 0.158438 -6.0334 2650 
1239 1 -0.0504969 -0.0455572 -0.0464006 0.000423 2.19223 2.22736 -2.38576 2650 
1500 1 -0.0528363 -0.059664 -0.0441967 0.000116 1.03334 -0.833976 -1.23534 2650 
2593 1 -0.0547539 -0.059829 -0.0417976 0.000116 2.28427 0.435502 -2.99235 2650 
1471 1 -0.0544554 -0.0565598 -0.041684 0.000423 -0.256575 -0.352337 0.335186 2650 
3426 1 -0.0556151 -0.0468413 -0.0401241 0.000423 3.47991 2.65471 -4.82345 2650 
3753 1 -0.056428 -0.0531132 -0.0389722 0.000423 -1.08663 -0.784785 1.57333 2650 
2395 1 -0.0559125 -0.0593937 -0.038161 0.000116 -1.98182 -1.90891 1.40588 2650 
4016 1 -0.0582641 -0.0536175 -0.0367467 0.000116 0.104429 0.914623 -0.165578 2650 
3005 1 -0.0584003 -0.0621499 -0.0359948 0.000423 1.37686 0.697104 -2.79672 2650 
575 1 -0.0585386 -0.0579651 -0.0357254 0.000423 6.98147 0.426975 -11.4398 2650 
1721 1 -0.061961 -0.0619461 -0.0300976 0.000116 2.47108 -0.00618439 -5.08714 2650 
3586 1 -0.0646634 -0.050768 0.0237416 0.000116 0.255745 -2.32321 0.696555 2650 
51 1 -0.0625696 -0.0455245 -0.0280712 0.000423 0.386057 0.0816864 -0.860497 2650 
935 1 -0.0627507 -0.0464618 -0.0276641 0.000423 0.586066 -0.0117337 -1.32938 2650 
486 1 -0.0634972 -0.0530591 -0.0259046 0.000423 -0.501922 -0.251865 1.23031 2650 
3724 1 -0.064108 -0.0551389 -0.0254042 4.2e-05 4.52117 0.912602 -11.4092 2650 
3547 1 -0.0643251 -0.0524319 -0.0237745 0.000423 -0.161916 0.32008 0.438085 2650 
1231 1 -0.0644602 -0.0475367 -0.0234059 0.000423 -0.38844 -0.102589 1.06977 2650 
4139 1 -0.0658408 -0.0528663 -0.0202486 0.000116 -0.436372 -0.514051 1.41892 2650 
3090 1 -0.065901 -0.0604382 -0.0189738 0.000423 -0.287005 0.0372891 0.996846 2650 
208 1 -0.0660704 -0.0571264 -0.0194866 0.000116 2.26494 1.09424 -7.67944 2650 
1393 1 -0.0679539 -0.0626336 -0.0112822 0.000116 0.204128 -0.153977 -1.2346 2650 
239 1 -0.067816 -0.0620618 -0.00973671 0.000423 -0.267204 0.190558 1.93327 2650 
3540 1 -0.0683366 -0.0453506 -0.00575068 0.000423 0.256912 2.4866 -3.05304 2650 
2201 1 -0.0682042 -0.0610695 -0.000772677 0.000656 0.0326576 1.54466 -3.51526 2650 
693 1 -0.0683641 -0.0613551 0.000916086 0.000423 0.286607 2.75869 -0.937242 2650 
1816 1 -0.0688756 -0.0599958 0.00108232 0.000116 -0.00664153 0.0997972 -0.422647 2650 
2256 1 -0.0687543 -0.0468153 0.00422749 0.000116 -0.257585 0.585486 -4.18926 2650 
3691 1 -0.0677947 -0.0614437 0.0122026 0.000116 -0.306465 0.00554417 -1.70265 2650 
1326 1 -0.0671846 -0.0463183 0.0125472 0.000656 0.335581 0.478268 1.79689 2650 
3785 1 -0.0676178 -0.0571641 0.0131475 0.000116 -0.364812 0.297372 -1.87623 2650 
1630 1 -0.067521 -0.0588806 0.0136361 0.000116 0.207951 1.64686 1.0297 2650 
1784 1 -0.0671485 -0.0494092 0.0139292 0.000423 0.210873 -0.224255 1.01655 2650 
843 1 -0.0663331 -0.0489625 0.0185725 0.000116 0.0868745 -0.214687 0.310279 2650 
3038 1 -0.0661321 -0.0531766 0.0192759 0.000116 0.0607423 -1.52486 0.208395 2650 
1030 1 -0.0658764 -0.0469575 0.019059 0.000423 0.351717 -0.170117 1.21569 2650 
2 1 -0.0649272 -0.0490855 0.021346 0.000656 0.497245 0.164878 1.51245 2650 
4345 1 -0.0414093 -0.050345 0.0330401 0.000116 1.53403 7.11973 5.81597 2650 
2954 1 -0.0594708 -0.0509083 0.0347601 0.000116 -5.88694 0.230296 -10.0719 2650 
4376 1 -0.058603 -0.0610904 0.0363441 4.2e-05 -0.304617 0.0264567 -0.49118 2650 
2451 1 -0.053657 -0.0606981 0.0427069 0.000423 2.26942 -0.0763573 2.8513 2650 
3479 1 -0.0538454 -0.0537726 0.0429615 0.000116 0.266446 -1.77201 0.333947 2650 
390 1 -0.0526201 -0.0584193 0.044454 0.000116 -5.62044 0.56519 -6.65291 2650 
3933 1 -0.0462424 -0.0532193 0.0510555 0.000116 0.646053 0.100446 0.585149 2650 
734 1 -0.0333629 -0.0619676 0.0563583 0.000116 -6.84978 0.293715 -1.0283 2650 
2210 1 -0.0381059 -0.058561 0.0567375 0.000656 2.44073 0.0836328 1.63924 2650 
1912 1 -0.0388996 -0.0482705 0.056478 0.000423 1.42305 0.129106 0.980132 2650 
3088 1 -0.0381591 -0.0623558 0.056982 0.000423 0.970256 0.42796 0.690136 2650 
95 1 -0.0387973 -0.0525436 0.0569192 0.000116 -2.06276 0.181286 -1.40602 2650 
2711 1 -0.033948 -0.0614833 0.0599379 0.000116 -1.77541 -0.0916683 -1.00557 2650 
2833 1 -0.0311973 -0.0611231 0.0614146 0.000116 -2.06608 0.982193 -1.04952 2650 
3549 1 -0.0305241 -0.0600761 0.0614103 0.000423 0.547003 -0.69892 0.271889 2650 
1934 1 -0.0313885 -0.0578911 0.0613172 0.000116 -13.1411 0.408776 -6.72697 2650 
3360 1 -0.0267899 -0.0551964 0.0634612 0.000116 -2.86594 -1.01395 -1.20984 2650 
2921 1 -0.0183664 -0.0540506 0.0663905 0.000116 -6.84995 1.07684 -1.89498 2650 
518 1 -0.0138831 -0.0604215 0.0674706 0.000116 -2.31889 -0.00509747 -0.477146 2650 
2965 1 -0.0102918 -0.0529449 0.0681857 4.2e-05 -1.21753 -0.665124 -0.183771 2650 
955 1 -0.00861651 -0.0535572 0.0683431 0.000116 1.19301 0.295676 0.150412 2650 
856 1 -0.00512719 -0.0518801 0.068693 0.000116 0.82781 -0.522549 0.061787 2650 
3140 1 -0.00183481 -0.0369824 -0.0688597 0.000116 -1.67155 -0.174994 0.0445396 2650 
2183 1 -0.00504442 -0.02179 -0.0686992 0.000116 -2.15381 0.0149398 0.158149 2650 
1606 1 -0.000310947 -0.0182445 -0.0688834 0.000116 0.919622 0.487381 -0.00415127 2650 
940 1 -0.00421011 -0.0138012 -0.0687554 0.000116 -3.90771 -0.122426 0.239282 2650 
3978 1 -0.000517873 -0.0342433 -0.068576 0.000423 -1.86554 -0.152426 0.00279837 2650 
3079 1 -0.00139957 -0.0336318 -0.0683318 0.000656 -1.65346 0.218401 0.0294015 2650 
3692 1 -0.00741281 -0.0237447 -0.0684841 0.000116 -1.363 0.18938 0.147533 2650 
3514 1 -0.00341425 -0.0236929 -0.0682609 0.000656 -1.88509 -0.459042 0.0942882 2650 
1987 1 -0.00210832 -0.0209272 -0.0682964 0.000656 -1.66327 0.0681098 -0.0974067 2650 
2460 1 -0.0076957 -0.0190638 -0.0681449 0.000423 -2.24747 -0.376166 0.25381 2650 
2238 1 -0.00740274 -0.0165295 -0.0681773 0.000423 -1.20542 0.626119 0.130886 2650 
107 1 -0.00866481 -0.0155775 -0.0684115 4.2e-05 -3.0073 0.230696 0.380897 2650 
21 1 -0.00332329 -0.0125211 -0.0684975 0.000423 -1.46871 0.507638 0.0712573 2650 
1649 1 -0.00791387 -0.00104106 -0.0685024 4.2e-05 -2.33457 -0.000499724 0.269705 2650 
114 1 -0.00764761 -0.0013953 -0.067917 0.000656 -2.74949 -0.111436 0.309599 2650 
681 1 -0.00988726 -0.0389944 -0.0678616 0.000423 -2.24103 0.131716 0.326512 2650 
3887 1 -0.0120155 -0.0376116 -0.0675172 0.000423 -1.72151 -0.304542 0.306364 2650 
1170 1 -0.0135156 -0.0164467 -0.0675452 0.000116 -2.66369 -0.568735 0.532996 2650 
2014 1 -0.0104723 -0.0159509 -0.0677738 0.000423 -2.97566 0.174103 0.459794 2650 
4342 1 -0.0134268 -0.0116024 -0.0675629 0.000116 -2.59918 0.145355 0.516537 2650 
306 1 -0.0139847 -0.00117694 -0.0674496 0.000116 -1.54913 -0.0452424 0.321189 2650 
4037 1 -0.0140738 -0.00151656 -0.0674311 0.000116 -3.00283 -0.0726406 0.626732 2650 
2626 1 -0.0224844 -0.019887 -0.0650021 0.000116 1.98302 -0.289815 1.56683 2650 
3314 1 -0.0204725 -0.0197501 -0.065451 0.000423 -2.63524 0.482369 0.816703 2650 
3069 1 -0.0227687 -0.0125465 -0.0650907 4.2e-05 -1.55538 -0.435151 0.54407 2650 
2245 1 -0.0242593 -0.0244526 -0.0641439 0.000423 -3.05089 0.222004 1.15385 2650 
2234 1 -0.0250602 -0.0369518 -0.0638352 0.000423 -2.00469 -0.0313233 0.786994 2650 
2038 1 -0.0257475 -0.0108004 -0.0638912 0.000116 -2.33345 -0.414189 0.940358 2650 
1640 1 -0.0266325 -0.00538178 -0.0636075 4.2e-05 -2.94328 -0.124078 1.23236 2650 
4026 1 -0.0270761 -0.0227198 -0.0631487 0.000116 2.54388 -0.305735 -0.65609 2650 
1760 1 -0.0299939 -0.00166232 -0.0620933 4.2e-05 -1.92967 0.160559 0.932117 2650 
417 1 -0.0309832 -0.00428383 -0.0610251 0.000116 -1.17019 -0.0811983 4.13356 2650 
1111 1 -0.0318882 -0.0444941 -0.0604512 0.000656 -2.21556 0.232585 1.16872 2650 
1723 1 -0.0325699 -0.00724347 -0.0606978 0.000116 -2.82614 -0.200543 1.51648 2650 
2996 1 -0.0337656 -0.0140936 -0.0596895 0.000423 -2.19244 0.139007 1.24023 2650 
1914 1 -0.0351786 -0.0258024 -0.0588678 0.000423 -1.81831 0.110977 1.0866 2650 
50 1 -0.03584 -0.0211122 -0.0584675 0.000423 -1.72972 0.0429832 1.06039 2650 
1323 1 -0.0351245 -0.0192165 -0.0586299 0.000656 0.71804 0.149433 -0.43017 2650 
3378 1 -0.0363908 -0.0155522 -0.058487 0.000116 -1.00061 0.331082 0.622581 2650 
197 1 -0.035772 -0.0137476 -0.0588676 0.000116 -2.73778 -0.188847 1.66366 2650 
228 1 -0.0352201 -0.0108008 -0.0585726 0.000656 -2.17408 0.248328 1.30729 2650 
3671 1 -0.034999 -0.00666802 -0.0589747 0.000423 -1.65488 0.392596 0.982104 2650 
2768 1 -0.0346632 -0.0050314 -0.0591727 0.000423 -1.46487 -0.189847 0.858117 2650 
2002 1 -0.0350207 -0.00118613 -0.0589618 0.000423 -1.77275 -0.0431449 1.05293 2650 
4373 1 -0.037609 -0.0414788 -0.0577994 4.2e-05 0.493986 0.820779 -0.321427 2650 
2829 1 -0.0373455 -0.0349977 -0.0578821 0.000116 -0.864647 -1.10888 0.557871 2650 
892 1 -0.0363721 -0.00299931 -0.0578642 0.000656 -1.54064 -0.113144 0.968414 2650 
1964 1 -0.0368432 -0.00196584 -0.0582031 0.000116 -1.66574 -0.0851714 1.05443 2650 
2242 1 -0.0360926 -0.00160158 -0.0583119 0.000423 -1.63087 0.0858949 1.00944 2650 
3779 1 -0.037435 -0.00733367 -0.0574593 0.000423 -2.10658 -0.183276 1.37245 2650 
1792 1 -0.0387066 -0.0135481 -0.0566105 0.000423 -2.11733 -0.137754 1.44769 2650 
1177 1 -0.0396912 -0.00465413 -0.0562995 0.000116 -2.25333 -0.699614 1.58861 2650 
4068 1 -0.0401554 -0.0235523 -0.0555922 0.000423 -0.54932 -0.438226 0.396785 2650 
1206 1 -0.0411707 -0.00614092 -0.0553189 4.2e-05 -3.02665 -1.20382 2.25256 2650 
38 1 -0.0417267 -0.00934833 -0.0544228 0.000423 -1.85752 -0.289817 1.42418 2650 
2803 1 -0.043559 -0.0223511 -0.0531901 0.000116 2.16005 -0.617357 -1.31413 2650 
338 1 -0.0435183 -0.0255707 -0.0527007 0.000656 -1.98626 0.349821 1.64018 2650 
1042 1 -0.0445759 -0.0231357 -0.0521147 0.000423 -1.96663 0.388079 1.68215 2650 
2457 1 -0.0444609 -0.0445727 -0.0522131 0.000423 4.90481 -0.536593 -4.17658 2650 
1994 1 -0.0462411 -0.0243864 -0.050643 0.000423 -1.96898 -0.283775 1.79784 2650 
2291 1 -0.0460796 -0.0123602 -0.0512025 0.000116 -2.22502 -0.289155 2.0024 2650 
2064 1 -0.0472034 -0.0296836 -0.0501684 0.000116 4.12713 -1.42343 -3.88321 2650 
4098 1 -0.0473531 -0.0261406 -0.0496048 0.000423 -1.00555 -0.299105 0.959909 2650 
4210 1 -0.0477109 -0.0234372 -0.0492608 0.000423 -1.28371 0.340658 1.24332 2650 
1275 1 -0.0482252 -0.0131899 -0.0491869 0.000116 -2.3441 0.427929 2.29827 2650 
2007 1 -0.0473576 -0.0117399 -0.0496006 0.000423 -2.33446 -0.304992 2.2289 2650 
807 1 -0.0482533 -0.0136188 -0.0487296 0.000423 -2.16598 -0.185485 2.1448 2650 
3602 1 -0.048886 -0.000657091 -0.0485302 0.000116 -1.53402 -0.0708776 1.54527 2650 
4069 1 -0.0502108 -0.0116415 -0.0467101 0.000423 -1.4992 0.154167 1.61156 2650 
2820 1 -0.0491132 -0.0445767 -0.0458683 0.000116 2.03554 -2.75031 -1.73888 2650 
160 1 -0.051283 -0.0107173 -0.0455302 0.000423 -1.79631 0.168842 2.02327 2650 
2765 1 -0.0519122 -0.0355998 -0.0448115 0.000423 -0.938529 0.532035 1.08725 2650 
1196 1 -0.0526283 -0.0236524 -0.0444441 0.000116 -0.775759 -0.536532 0.918612 2650 
2911 1 -0.0522725 -0.00267255 -0.0443908 0.000423 -1.6214 0.282948 1.90928 2650 
2102 1 -0.0524787 -0.0255231 -0.0437858 0.000656 -1.54446 0.0431572 1.85108 2650 
3210 1 -0.052795 -0.0104694 -0.043768 0.000423 -2.00055 -0.0356034 2.41315 2650 
3015 1 -0.0535902 -0.0272477 -0.0427907 0.000423 -1.53363 0.132453 1.92068 2650 
3198 1 -0.0543025 -0.0374315 -0.041883 0.000423 -0.142695 0.312594 0.185009 2650 
287 1 -0.0546054 -0.00412216 -0.0419914 0.000116 -1.09256 1.07012 1.42076 2650 
2192 1 -0.0550437 -0.0168069 -0.041538 4.2e-05 -0.473454 0.479006 0.627393 2650 
2480 1 -0.0556674 -0.0430955 -0.0405729 0.000116 -1.17951 1.34702 1.61832 2650 
3385 1 -0.0541043 -0.0232992 -0.0406433 0.000116 0.463201 -1.01639 -2.63874 2650 
4021 1 -0.0556927 -0.0114442 -0.0405382 0.000116 -1.73884 0.492419 2.38888 2650 
1208 1 -0.0334987 -0.00136689 -0.0404854 4.2e-05 3.13256 -0.259604 -4.2188 2650 
4293 1 -0.0556369 -0.00754478 -0.0400935 0.000423 -0.838307 0.426701 1.1633 2650 
872 1 -0.0571005 -0.013922 -0.0386619 4.2e-05 -1.79326 -0.193071 2.6485 2650 
3261 1 -0.057666 -0.00151024 -0.0376783 0.000116 -0.553804 -0.0963005 0.847588 2650 
2685 1 -0.0578145 -0.0212062 -0.0368844 0.000423 -0.983433 0.558245 1.49781 2650 
1916 1 -0.057832 -0.0166403 -0.0368566 0.000423 -1.72397 0.106653 2.7051 2650 
2296 1 -0.0585727 -0.0444815 -0.0355783 0.000116 -1.82095 -1.14942 0.00398491 2650 
3622 1 -0.0583634 -0.0183972 -0.0355656 0.000656 -0.877985 0.255083 1.44078 2650 
299 1 -0.0592611 -0.0108787 -0.0351162 0.000116 -1.59815 -0.352083 2.697 2650 
2821 1 -0.0605643 -0.0284084 -0.0328175 0.000116 0.0927092 -0.720358 -0.171093 2650 
2898 1 -0.0601028 -0.0201833 -0.032867 0.000423 -0.407526 0.150378 0.960207 2650 
3229 1 -0.0611381 -0.0213138 -0.0310658 0.000423 0.38197 -0.06253 -0.751725 2650 
897 1 -0.0616878 -0.034539 -0.0299593 0.000423 -0.435871 0.597782 0.897481 2650 
1683 1 -0.0617469 -0.0155462 -0.0298374 0.000423 -1.28873 0.569576 2.66695 2650 
410 1 -0.0621475 -0.0148789 -0.0297105 0.000116 -1.21984 0.817342 2.55163 2650 
2343 1 -0.0621465 -0.0186585 -0.0289958 0.000423 -0.723881 0.386183 1.55149 2650 
437 1 -0.062767 -0.013319 -0.0285571 4.2e-05 -1.32575 -0.19023 2.91392 2650 
2817 1 -0.0626008 -0.00787532 -0.0287431 0.000116 -1.33363 -0.170264 2.90456 2650 
3989 1 -0.0624255 -0.0021436 -0.0283904 0.000423 -0.944146 0.0807073 2.07601 2650 
3260 1 -0.062814 -0.0270801 -0.0282741 0.000116 0.229707 -1.43517 -0.510319 2650 
1290 1 -0.0602087 -0.0216734 -0.0252969 0.000116 0.384108 -0.195587 -7.52535 2650 
3054 1 -0.0647579 -0.0191444 -0.0234826 0.000116 -0.659882 -1.56995 1.81975 2650 
2947 1 -0.0647826 -0.00897285 -0.0234144 0.000116 -1.06054 -0.00675294 2.9343 2650 
2062 1 -0.0213805 -0.00421683 -0.0228147 0.000116 -2.95511 -0.133352 -3.12467 2650 
1690 1 -0.00978975 -0.0106368 -0.0216723 0.000423 -1.00992 -1.13722 -2.49273 2650 
1838 1 -0.0655502 -0.0346932 -0.0211707 0.000116 -0.771348 -0.28626 2.38831 2650 
2900 1 -0.0654563 -0.0227805 -0.0204553 0.000423 -0.67054 -0.18469 2.14571 2650 
615 1 -0.06566 -0.00568939 -0.0208274 0.000116 0.309394 0.297678 -0.975388 2650 
3817 1 -0.0661318 -0.00374497 -0.0192772 0.000116 -0.896248 0.0313107 3.07464 2650 
814 1 -0.0659553 -0.0297453 -0.0187844 0.000423 -0.428264 0.660548 1.50371 2650 
3694 1 -0.0630301 -0.00432604 -0.0186501 0.000116 -1.24633 -0.0885356 2.76562 2650 
2858 1 -0.0661748 -0.0131054 -0.017091 0.000656 -0.571379 0.279812 2.21232 2650 
606 1 -0.000183 0.00231302 -0.016592 0.000116 0 -0.011753 0 2650 
2520 1 -0.000188065 0.00456166 -0.0168116 4.2e-05 -0.0125271 0.0201098 0.013978 2650 
3626 1 -0.0220584 -0.00654314 -0.0165985 0.000656 -2.82219 -0.449128 -2.04088 2650 
198 1 -0.0668852 -0.00284711 -0.0164739 0.000116 -0.223246 -0.290852 0.906392 2650 
2172 1 -0.00384408 -0.00146952 -0.0162558 0.000116 0.0682862 0.00746542 -0.00852403 2650 
30 1 -0.000971629 -0.000332897 -0.0161621 0.000423 -0.0136125 -0.0214967 0.00834717 2650 
2013 1 -0.00286577 0.00290702 -0.0160034 0.000423 -0.00154235 0.00221798 0.00156406 2650 
1679 1 -0.00387182 0.00356072 -0.0159964 0.000423 -0.00453729 0.0157155 0.00260015 2650 
2283 1 -0.00352055 0.00366351 -0.0164481 0.000116 -0.00010552 0.00956354 0.000789399 2650 
2301 1 -0.004222 0.00408602 -0.016305 4.2e-05 0 -0.011753 0 2650 
3121 1 -0.00109808 0.00515601 -0.0161987 0.000423 0.0292552 0.00121421 5.81941e-05 2650 
978 1 -0.00375304 0.00656914 -0.0162845 0.000116 0.0180122 -0.00353228 -0.00159853 2650 
3934 1 -0.001977 0.00707502 -0.016218 0.000116 0 -0.011753 0 2650 
3177 1 -0.00052641 0.00871515 -0.0158053 4.2e-05 0.00917698 -0.00185525 -0.00666376 2650 
289 1 -0.00276539 0.00970171 -0.0161804 0.000116 -0.00850769 0.000708308 0.0302001 2650 
1483 1 -0.000378528 0.00948364 -0.015848 0.000423 -0.00134867 0.0112238 -0.0085204 2650 
3007 1 -0.00226681 0.0110446 -0.0159363 0.000423 -0.0135196 -0.00505473 -0.0280609 2650 
3500 1 -0.00100137 0.0108223 -0.0163288 4.2e-05 -0.0454796 -0.00333034 0.0313479 2650 
188 1 -0.00177137 0.0114067 -0.0165202 0.000116 -0.0148612 0.0228045 0.00418427 2650 
2713 1 -0.000737742 0.0125311 -0.016403 0.000116 0.00037122 0.035974 0.00535071 2650 
3644 1 -0.00114796 0.0128392 -0.0160966 0.000423 -0.000399523 0.00418678 0.0157329 2650 
2924 1 -0.00430203 0.013635 -0.0160246 0.000116 -0.059039 0.0353164 0.00422158 2650 
148 1 -0.00275113 0.0345083 -0.0162366 0.000423 -0.15418 -0.150743 0.0286835 2650 
4010 1 -0.00365513 0.0377286 -0.0161392 0.000116 -0.0944465 0.099748 0.0197066 2650 
945 1 -0.00355392 0.0507408 -0.0163952 0.000116 -0.208327 -0.100076 0.0379834 2650 
322 1 -0.0672447 -0.0185445 -0.015276 4.2e-05 -0.289112 -0.570153 1.27267 2650 
3018 1 -0.0668165 -0.0019251 -0.0154435 0.000423 -0.621621 -0.126363 2.68945 2650 
509 1 -0.00726461 -8.23013e-05 -0.0150714 0.000116 -0.0177725 -0.00949189 -0.00542934 2650 
736 1 -0.00574109 -0.000159486 -0.0155278 0.000116 -0.0307431 -0.0170391 0.0144389 2650 
3637 1 -0.00461182 0.00310799 -0.0155752 0.000423 -0.0121297 0.0118194 -0.00377228 2650 
2399 1 -0.002418 0.00252702 -0.015541 0.000116 0 -0.011753 0 2650 
2438 1 -0.00579579 0.00727374 -0.0150373 0.000423 -0.00468347 -0.000292455 -0.00123863 2650 
3830 1 -0.006879 0.00862702 -0.015411 4.2e-05 0 -0.011753 0 2650 
2793 1 -0.000908205 0.00832241 -0.01509 0.000423 0.0113251 0.0911454 -0.00570485 2650 
233 1 -0.00436902 0.00925087 -0.0153851 0.000423 0.0114684 -0.00558491 0.0116559 2650 
86 1 -0.0031837 0.00972303 -0.0150094 0.000116 -0.0196067 0.0126222 0.000798653 2650 
2969 1 -0.00197831 0.00947753 -0.0150944 0.000656 -0.00770999 0.0181957 -4.77754e-05 2650 
1617 1 -0.00134958 0.010027 -0.0151949 0.000116 0.0304013 0.00375314 0.0183235 2650 
938 1 -0.00136664 0.0099102 -0.0154736 0.000116 -0.00972467 -0.0045752 -0.00099221 2650 
371 1 -0.00050847 0.0103393 -0.0157709 0.000423 -0.00202239 0.0122439 -0.00806147 2650 
1839 1 -0.000626078 0.0143216 -0.0154232 0.000116 -0.0676852 0.0211351 0.0188737 2650 
4231 1 -0.00101826 0.0176756 -0.0150434 0.000116 -0.0134934 0.0153003 0.0304581 2650 
3352 1 -0.00602023 0.0565443 -0.0155754 0.000116 -0.836933 -0.00227673 0.362774 2650 
2666 1 -0.0063857 -0.00239759 -0.0143863 0.000423 0.0429038 -0.00888448 0.00629481 2650 
269 1 -0.000379221 -0.00282629 -0.0142863 0.000423 -0.0067037 -0.0325502 -0.00931701 2650 
1053 1 -0.007469 -0.00131498 -0.014946 0.000116 0 -0.011753 0 2650 
1991 1 -0.0066248 0.000371407 -0.014613 0.000656 -0.019376 -0.00203791 0.00870126 2650 
3239 1 -0.00526099 0.00142698 -0.01481 0.000116 -0.0248133 -0.00752354 0.0120924 2650 
857 1 -0.00164897 0.00157514 -0.0149765 0.000116 -0.0623021 0.0193526 0.00200378 2650 
150 1 -0.00719262 0.00280972 -0.0145131 0.000423 -0.0542472 0.016714 0.0257745 2650 
220 1 -0.0034905 0.00306678 -0.0143575 4.2e-05 0.00197382 0.00663681 0.00671825 2650 
1388 1 -0.00377246 0.00536598 -0.0147345 0.000116 -0.039288 0.0021603 0.0169103 2650 
3365 1 -0.002315 0.00495302 -0.014552 0.000116 0 -0.011753 0 2650 
4227 1 -0.000570071 0.00555052 -0.0146271 0.000116 0.00143204 -0.0228975 -0.0290312 2650 
2313 1 -0.00401814 0.00750358 -0.014385 0.000656 0.0121795 0.0249345 0.010824 2650 
581 1 -0.00564097 0.00800867 -0.0146101 0.000423 0.000441693 0.00100922 0.00165067 2650 
2092 1 -0.00629773 0.00909625 -0.0145198 0.000656 -0.0381475 0.00403935 -0.0454126 2650 
3669 1 -7.19266e-05 0.0101846 -0.0148483 0.000423 0.00311727 -0.00583333 -0.00141597 2650 
1228 1 -0.00162499 0.0109943 -0.0149756 0.000423 -0.0026547 0.0243513 0.000515369 2650 
164 1 -0.0672288 -0.0399339 -0.0135367 0.000423 -0.428367 0.0488657 2.12744 2650 
186 1 -0.00227408 -0.0032979 -0.0138978 0.000116 -0.0548922 -0.0357269 0.0179676 2650 
2827 1 -0.00631686 -0.00296101 -0.0139796 0.000116 0.00705037 -0.0435835 0.021739 2650 
623 1 -0.00734745 -6.00409e-05 -0.0137387 0.000116 -0.0192086 -0.00896372 0.0230222 2650 
2332 1 -0.00512249 -0.000414458 -0.0137279 0.000423 -0.0114447 -0.00779769 0.00753018 2650 
2922 1 -0.00725176 0.00139536 -0.0139462 0.000116 -0.00925852 -0.000802711 0.00675368 2650 
676 1 -0.00434807 0.00220374 -0.0137136 0.000423 -0.0128147 0.00889048 0.0204924 2650 
2512 1 -0.00818843 0.00297359 -0.0135062 0.000116 0.018779 -0.0192413 0.00230208 2650 
3587 1 -0.00753443 0.00321867 -0.0141905 0.000116 -0.0579635 0.0255056 0.0285778 2650 
1032 1 -0.00620374 0.00331319 -0.0136153 0.000423 0.0299121 -0.00820922 0.0127278 2650 
1684 1 -8.01514e-05 0.00340682 -0.01378 0.000423 -0.00348729 -0.0115683 0.00145358 2650 
2913 1 -0.00877951 0.00514477 -0.0136778 0.000116 -0.0140945 -0.0228944 -0.00540615 2650 
1192 1 -0.00634629 0.00493212 -0.0136996 0.000116 -0.0160738 0.0171838 -0.0228619 2650 
2918 1 -0.00744408 0.00604191 -0.0140681 0.000116 0.0149777 0.0131491 0.0124233 2650 
1611 1 -0.00493588 0.0058571 -0.0135363 0.000116 0.0134772 -0.0209987 -0.0751807 2650 
1288 1 -0.002467 0.00625602 -0.014044 0.000116 0 -0.011753 0 2650 
2344 1 -0.000508396 0.0056033 -0.0138031 0.000423 0.00575909 -0.0231993 -0.0217047 2650 
2322 1 -0.00891697 0.00637371 -0.0135213 0.000656 -0.00551701 -0.0136996 -0.00131915 2650 
1618 1 -0.00999275 0.00746057 -0.0134873 0.000116 -0.0149296 -0.00599185 -0.0101377 2650 
3515 1 -0.00792534 0.00715328 -0.0139601 0.000656 -0.0100504 -0.00967393 0.00145301 2650 
963 1 -0.00710231 0.00711772 -0.0141759 0.000116 0.00350227 -0.00324664 0.0156587 2650 
2222 1 -0.000767741 0.00768095 -0.014035 0.000423 0.00146823 0.00147039 0.0229484 2650 
3702 1 -0.00064497 0.00726239 -0.0135019 0.000116 0.051128 0.0233268 -0.0546565 2650 
1250 1 -0.00848148 0.00794638 -0.0134281 0.000423 -0.00730125 -0.00574558 -0.000431452 2650 
4257 1 -0.00786968 0.00799508 -0.0136483 0.000116 -0.00578911 -0.00907208 0.00958653 2650 
1769 1 -0.00737493 0.00860981 -0.0139466 0.000656 -0.0173488 -0.0031465 -0.00602587 2650 
1237 1 -0.00935592 0.00887199 -0.0134863 0.000423 0.00205875 0.0105454 -1.45263e-05 2650 
4190 1 -0.00857084 0.00877506 -0.0140683 0.000423 0.00475473 0.00488139 -0.00345892 2650 
1476 1 -0.00718234 0.009882 -0.013435 0.000423 -0.00430855 0.00299287 4.96068e-07 2650 
1827 1 -0.00689196 0.01016 -0.013893 0.000116 0.0104858 0.011057 0.025833 2650 
1409 1 -0.00044 0.010036 -0.013868 0.000116 0 -0.011753 0 2650 
2781 1 -0.00596957 0.0102808 -0.0135865 0.000423 -0.00287998 0.011096 -0.0317373 2650 
2182 1 -0.000254196 0.0105428 -0.0138166 0.000116 -0.0273815 0.022445 -0.0411396 2650 
2466 1 -0.00824822 0.0194222 -0.0134347 0.000423 0.048327 0.0396991 -0.0547289 2650 
1195 1 -0.00830899 0.0276806 -0.0136574 0.000116 0.0557766 0.0782116 -0.0138054 2650 
2643 1 -0.00538108 0.0302302 -0.013914 0.000656 -0.0823633 0.0688822 0.0201377 2650 
3279 1 -0.00211762 0.0469324 -0.0141785 0.000116 0.0698602 -0.118112 -0.0910458 2650 
2021 1 -0.0077227 0.0557657 -0.013759 0.000423 0.132959 -0.0939981 -0.0898992 2650 
3936 1 -0.0675198 -0.0208642 -0.013554 4.2e-05 11.5851 1.73561 -9.47566 2650 
4097 1 -0.00790623 -0.00293565 -0.0128352 0.000423 0.0222564 -0.0142204 -0.0225559 2650 
1022 1 -0.00344349 -0.000823074 -0.0130142 0.000423 -0.00789737 0.00635626 0.0363748 2650 
3599 1 -0.00178753 -0.0011544 -0.0126602 0.000116 0.00758272 -0.00512374 -0.0536854 2650 
3191 1 -0.00861844 -0.000263503 -0.0126784 0.000656 -0.0137519 -0.00733615 -0.00341624 2650 
4126 1 -0.00665498 0.000738452 -0.0129738 0.000116 -0.0261531 0.0084042 0.00402279 2650 
2525 1 -0.004063 0.000483019 -0.013231 4.2e-05 0 -0.011753 0 2650 
2619 1 -0.005851 0.00129902 -0.012854 0.000116 0 -0.011753 0 2650 
3477 1 -0.00533062 0.000822068 -0.0127471 0.000116 0.0183398 -0.0587002 0.0125841 2650 
3880 1 -0.010277 0.00221502 -0.012913 0.000423 0 -0.011753 0 2650 
2609 1 -0.00886 0.00202302 -0.013248 0.000116 0 -0.011753 0 2650 
3733 1 -0.00815441 0.00236088 -0.0126442 0.000656 -0.023221 0.0173181 0.0154659 2650 
4165 1 -0.00517409 0.00179151 -0.013153 0.000656 -0.00303534 -0.0330669 0.0101716 2650 
3917 1 -0.003984 0.00278402 -0.012703 0.000116 0 -0.011753 0 2650 
2059 1 -0.003583 0.00299302 -0.012756 0.000116 0 -0.011753 0 2650 
3316 1 -0.00931958 0.00351514 -0.0129248 0.000423 -0.00544519 -0.0183171 -0.00879554 2650 
1171 1 -0.00776039 0.00340995 -0.0132584 0.000116 0.0131753 -0.0110464 0.0150896 2650 
3787 1 -0.00661737 0.0041807 -0.0127222 0.000116 -0.0024271 -0.00223267 -0.0195234 2650 
3446 1 -0.001428 0.00455751 -0.0128812 0.000423 0.014297 -0.016402 -0.00312272 2650 
1427 1 -0.002948 0.00532402 -0.013376 4.2e-05 0 -0.011753 0 2650 
4078 1 -0.0104502 0.005859 -0.0127006 0.000423 -0.000913784 0.00267709 0.00687214 2650 
3950 1 -0.00709236 0.00572629 -0.0127057 0.000656 0.00169175 -0.00778163 0.0241998 2650 
2912 1 -0.00548473 0.00585902 -0.0131595 0.000116 0.00196064 0.0151142 0.00117299 2650 
445 1 -0.00993612 0.00708686 -0.0128112 0.000656 -0.00772048 -0.00210752 -0.00489686 2650 
3259 1 -0.00888673 0.00688309 -0.0127767 0.000116 0.00136236 -0.0113258 0.00321419 2650 
4179 1 -0.00776686 0.00708687 -0.0128557 0.000423 -0.00767678 -0.0221048 -0.00852388 2650 
1795 1 -0.00893645 0.00754118 -0.0128031 0.000423 -0.00333027 -0.00705618 0.0037936 2650 
2483 1 -0.00756897 0.00855906 -0.0129822 0.000116 0.0222317 -0.00887276 -0.000700143 2650 
205 1 -0.000744 0.00804002 -0.01334 0.000116 0 -0.011753 0 2650 
450 1 -0.00554448 0.00874749 -0.0126792 0.000656 0.013211 0.0358504 0.00701127 2650 
3847 1 -0.00947442 0.00976562 -0.0128873 0.000656 0.00218348 0.0145646 -0.00497691 2650 
2453 1 -0.0062378 0.00978188 -0.0129119 0.000423 0.00287214 0.0261989 -0.0126472 2650 
1775 1 -0.00823371 0.0108372 -0.0130708 0.000423 -7.29146e-05 -0.011186 -0.000346901 2650 
70 1 -0.00736707 0.0109509 -0.0128127 0.000116 0.0556946 -0.0955337 -0.10896 2650 
1986 1 -0.00238285 0.010881 -0.0129651 0.000656 0.00762539 0.0149956 0.0116892 2650 
3150 1 -0.000504798 0.0109188 -0.0133719 0.000116 -0.0182263 -0.0087302 -0.0269448 2650 
3163 1 -0.00732369 0.0119804 -0.0131432 0.000116 -0.0370466 0.0283549 -0.0433006 2650 
1802 1 -0.00372515 0.0124285 -0.0129766 0.000423 0.00500259 -0.000364755 -0.0111755 2650 
949 1 -0.00788001 0.0131479 -0.0132145 0.000116 -0.0176518 0.0277962 -0.00593252 2650 
478 1 -0.00653417 0.0151603 -0.0134168 0.000423 0.0184535 0.00116934 0.020279 2650 
1143 1 -0.000247465 0.0153636 -0.0130236 0.000423 0.0070315 0.0110531 -0.00616027 2650 
1717 1 -0.00263536 0.0242365 -0.012791 0.000116 -0.014717 0.0706098 -0.0348682 2650 
4234 1 -0.00377137 0.0284876 -0.0128045 0.000116 -0.0277623 0.0670651 -0.0707711 2650 
352 1 -0.00230137 0.0344915 -0.0134017 0.000423 0.0736471 -0.159457 0.0441779 2650 
1124 1 -0.00461557 0.0351589 -0.0130712 0.000423 0.115227 0.0704534 -0.0460588 2650 
4245 1 -0.0105912 0.0516649 -0.0129161 0.000116 -0.108278 0.145073 0.0575558 2650 
1173 1 -0.00921055 0.0556988 -0.0133476 0.000116 -0.0596708 -0.166669 0.133338 2650 
800 1 -0.0675628 -0.0347513 -0.0117567 0.000423 -0.55467 -0.983827 3.18755 2650 
1763 1 -0.001143 -0.00283098 -0.012442 0.000656 0 -0.011753 0 2650 
1320 1 -0.0677594 -0.0022646 -0.0128013 4.2e-05 1.10406 -0.484853 -5.84397 2650 
827 1 -0.0677825 -0.0014439 -0.0122698 0.000116 -0.299461 0.182254 1.65432 2650 
3576 1 -0.00588248 -0.00149884 -0.0125508 0.000116 0.0561059 0.00120064 -0.0311085 2650 
1422 1 -0.003881 -0.000984981 -0.012349 4.2e-05 0 -0.011753 0 2650 
4309 1 -0.0674776 -0.000484047 -0.0122363 0.000423 -0.398525 -0.0295749 2.19762 2650 
2468 1 -0.00728761 -0.000431186 -0.0121154 0.000423 -0.0504222 0.0211365 0.000191011 2650 
1799 1 -0.00322503 -0.000183076 -0.0120532 0.000423 7.10678e-05 -0.0118308 4.63239e-05 2650 
3551 1 -0.00757737 0.000636285 -0.0125898 0.000423 -0.015336 0.00523015 0.00637389 2650 
3389 1 -0.010415 0.00128102 -0.012026 0.000116 0 -0.011753 0 2650 
3956 1 -0.00916403 0.00092058 -0.0123126 0.000656 -0.00662715 -0.00118174 0.00160858 2650 
541 1 -0.0074154 0.00144278 -0.0119756 4.2e-05 -0.0143735 0.00954058 0.00936495 2650 
2473 1 -0.00958084 0.00211992 -0.0120435 0.000423 -0.0100024 -0.0039026 -0.049665 2650 
3826 1 -0.00922353 0.00302819 -0.0125264 0.000116 -0.000556987 -0.0170562 0.000917958 2650 
2474 1 -0.00252369 0.00321966 -0.0123212 0.000423 0.0307748 -0.0136667 -0.043701 2650 
708 1 -0.00193662 0.00388351 -0.0121916 0.000423 0.025827 0.00408535 -0.000620294 2650 
4300 1 -0.0014663 0.003175 -0.0122201 0.000423 0.0464595 0.0171624 -0.0680193 2650 
411 1 -0.0110781 0.0040269 -0.0120968 0.000116 -0.00787832 -0.00657823 -8.20909e-05 2650 