ITEM: TIMESTEP
3854886
ITEM: NUMBER OF ATOMS
4372
ITEM: BOX BOUNDS ff ff ff
-0.15 0.15
-0.15 0.06
-0.15 0.15
ITEM: ATOMS id type x y z radius vx vy vz density 
3683 1 -0.00478021 -0.0614522 -0.0675772 0.000116 3.92229 0.371333 -3.04852 2650 
2201 1 -0.0151919 -0.0585675 -0.0666365 0.000656 -2.9732 -0.919738 0.677835 2650 
1462 1 -0.0322146 -0.0514544 -0.0605406 0.000423 -1.62204 0.277047 0.863114 2650 
1060 1 -0.034208 -0.0606823 -0.0597899 0.000116 -1.69301 -0.777014 0.968631 2650 
2023 1 -0.0336484 -0.0508818 -0.0597556 0.000423 -2.2757 0.144907 1.28145 2650 
4037 1 -0.0370858 -0.0625841 -0.0570286 0.000116 -0.617313 -0.0287325 1.30268 2650 
2702 1 -0.046808 -0.0501038 -0.0505375 0.000116 5.25241 0.341601 -4.8648 2650 
3143 1 -0.0523617 -0.0600448 -0.044758 0.000116 2.16746 -0.76663 -2.53568 2650 
3156 1 -0.0528772 -0.0579863 -0.0441478 0.000116 1.24128 -0.75582 -1.48671 2650 
3957 1 -0.0533777 -0.0592816 -0.0426852 0.000656 -1.97226 -0.60646 2.46631 2650 
816 1 -0.0556521 -0.0509113 -0.0400725 0.000423 -2.99614 0.482789 4.161 2650 
1816 1 -0.065714 -0.0596594 -0.0206566 0.000116 2.11115 0.162479 -6.71612 2650 
1068 1 -0.0608347 -0.0619053 -0.0198339 0.000116 2.60088 -0.00695658 -6.64723 2650 
4139 1 -0.0663279 -0.0456438 -0.0185911 0.000116 -0.150298 -2.39244 0.536221 2650 
483 1 -0.0663593 -0.0486953 -0.017303 0.000423 -0.498705 -0.0355365 1.9126 2650 
3440 1 -0.0670212 -0.0587942 -0.0145297 0.000423 -0.55567 0.167725 2.56315 2650 
1638 1 -0.0676781 -0.0519147 -0.0128338 0.000116 1.30337 -0.214359 -6.87321 2650 
4250 1 -0.0678247 -0.0563973 -0.0120348 0.000116 -0.418171 -0.0419173 2.3567 2650 
1943 1 -0.0658453 -0.0472653 0.0202342 0.000116 0.514651 0.846054 1.67475 2650 
1132 1 -0.0608038 -0.0600959 0.0317151 0.000423 1.18781 0.188219 2.27726 2650 
1135 1 -0.0514791 -0.0545337 0.0453084 0.000423 1.37815 0.402498 1.56585 2650 
947 1 -0.0502777 -0.0555559 0.0470869 0.000116 -1.21869 -0.729271 -1.30128 2650 
3850 1 -0.0418047 -0.0622273 0.0543628 0.000423 1.05122 0.035501 0.80838 2650 
1380 1 -0.00466848 -0.052792 0.0687257 0.000116 -0.0130555 0.35994 -0.000886847 2650 
1239 1 -0.0399469 -0.062377 0.0557423 0.000423 -4.01729 -0.000910109 -2.87893 2650 
4133 1 -0.0382036 -0.0613012 0.0557091 0.000116 3.68147 0.836267 2.33004 2650 
1568 1 -0.0193009 -0.049693 0.065806 0.000423 1.16153 0.763256 0.340677 2650 
1270 1 -0.0145636 -0.0478089 0.067327 0.000116 1.08015 0.484769 0.233649 2650 
418 1 -0.0102236 -0.0579664 0.0681212 0.000116 -6.21671 0.106069 -0.932999 2650 
21 1 -0.00688349 -0.0474633 0.0682317 0.000423 2.22831 -0.0391092 0.224801 2650 
758 1 -0.00457197 -0.0574451 0.0687322 0.000116 -1.48076 -0.183397 -0.0984979 2650 
169 1 -0.000325838 -0.0234604 -0.0688834 0.000116 -1.69393 -0.827375 0.00801279 2650 
1958 1 -0.00448939 -0.0166285 -0.0687377 0.000116 -3.19955 -0.233704 0.208968 2650 
3331 1 -0.00774916 -0.0422007 -0.0681386 0.000423 -2.85074 -0.538383 0.425106 2650 
1051 1 -0.0110435 -0.0379399 -0.0679931 0.000116 -1.71156 -1.20738 0.277993 2650 
574 1 -0.00583099 -0.029069 -0.0683297 0.000423 -2.41656 -0.0961107 0.20622 2650 
4297 1 -0.00752458 -0.0279766 -0.068164 0.000423 -2.79639 -0.24059 0.308691 2650 
3519 1 -0.00645563 -0.0278708 -0.0680407 0.000656 -2.79137 -0.201556 0.264843 2650 
3536 1 -0.00247177 -0.0218097 -0.0685335 0.000423 -2.67721 -0.310085 0.0965576 2650 
2118 1 -0.00884435 -0.0157617 -0.0680054 0.000423 -3.17569 -0.242507 0.41301 2650 
1333 1 -0.0021288 -0.01511 -0.068545 0.000423 -3.20595 -0.221919 0.099567 2650 
2970 1 -0.00155688 -0.00962715 -0.0683285 0.000656 -2.18888 -0.223508 0.0498742 2650 
4325 1 -0.010417 -0.0251582 -0.0677823 0.000423 -2.69938 -0.324622 0.414851 2650 
3613 1 -0.0147803 -0.0175076 -0.0673554 4.2e-05 -3.04275 -0.341816 0.667696 2650 
981 1 -0.0138914 -0.011446 -0.0675443 4.2e-05 -3.53338 3.67651 0.726687 2650 
4268 1 -0.0170151 -0.0438297 -0.0668259 4.2e-05 8.57624 0.965176 -2.18367 2650 
1447 1 -0.0159489 -0.031092 -0.0666977 0.000423 -2.70446 0.0865972 0.646697 2650 
2340 1 -0.0150427 -0.0225812 -0.0669079 0.000423 -2.15611 -0.232689 0.484754 2650 
353 1 -0.0159269 -0.0217739 -0.066703 0.000423 -2.47611 -0.258206 0.59123 2650 
2212 1 -0.0149662 -0.0207717 -0.066688 0.000656 -2.89051 -0.32883 0.646803 2650 
4021 1 -0.0147972 -0.0196401 -0.0667166 0.000116 -2.82562 0.193917 -1.14661 2650 
612 1 -0.0169991 -0.0134017 -0.0667537 0.000116 -3.10375 -0.19605 0.790385 2650 
992 1 -0.0166437 -0.0416084 -0.0662886 0.000656 -2.1459 0.120583 0.534275 2650 
4308 1 -0.0200808 -0.0310054 -0.0655722 0.000423 -2.85804 -0.467961 0.875246 2650 
3034 1 -0.018752 -0.00914218 -0.0662557 0.000116 -3.13866 -0.203108 0.734019 2650 
3360 1 -0.0205106 -0.00674412 -0.0657597 0.000116 -2.19994 -0.0258457 0.686168 2650 
1833 1 -0.019298 -0.00272213 -0.0661257 0.000116 -2.13379 0.272583 0.62272 2650 
3174 1 -0.0216782 -0.0373858 -0.0654619 4.2e-05 4.42156 -0.478369 -1.46423 2650 
1436 1 -0.0202292 -0.0194023 -0.0652839 0.000656 -3.05886 -0.18438 0.947834 2650 
856 1 -0.0229938 -0.00598044 -0.0649331 0.000116 -3.00209 -0.147044 1.06308 2650 
1915 1 -0.0227706 -0.0291644 -0.0646873 0.000423 -2.35737 -0.0512375 0.829819 2650 
2087 1 -0.0208742 -0.0215408 -0.0640505 4.2e-05 4.50978 -0.316199 -1.74039 2650 
2606 1 -0.0249101 -0.00643535 -0.0641976 0.000116 -3.07588 -0.191791 1.01976 2650 
2813 1 -0.0246053 -0.00644491 -0.0643397 0.000116 -2.99451 -0.15195 1.14518 2650 
753 1 -0.0264989 -0.0406396 -0.0635832 0.000116 -0.977831 -0.459276 0.40752 2650 
2245 1 -0.0259295 -0.0361789 -0.0634871 0.000423 -2.59453 -0.192321 1.05966 2650 
2928 1 -0.0262055 -0.0293401 -0.0637047 0.000116 1.65546 -0.44633 -0.680989 2650 
333 1 -0.0243638 -0.0251447 -0.0638562 0.000656 -2.5251 -0.0648632 0.963431 2650 
443 1 -0.0244801 -0.0195983 -0.0638117 0.000656 -2.28113 0.245931 0.875107 2650 
365 1 -0.0271201 -0.0219809 -0.0629877 0.000423 -2.01974 -0.191993 0.869622 2650 
4255 1 -0.0239292 -0.02051 -0.0630039 0.000116 2.59462 0.148352 -2.57367 2650 
4017 1 -0.0288913 -0.0190992 -0.0625325 0.000116 -2.8287 -0.16128 1.30692 2650 
132 1 -0.0309959 -0.0222321 -0.0611736 0.000423 -2.24577 -0.2247 1.13791 2650 
2010 1 -0.0307803 -0.019604 -0.0612824 0.000423 -2.84586 -0.287326 1.42939 2650 
2131 1 -0.0309113 -0.0187709 -0.0612164 0.000423 -2.85384 -0.289504 1.44105 2650 
2014 1 -0.0316409 -0.00949617 -0.0608425 0.000423 -2.92892 -0.19472 1.52317 2650 
2527 1 -0.0332482 -0.0166255 -0.0604133 4.2e-05 -2.72439 -0.304494 1.49936 2650 
4213 1 -0.0341115 -0.0436451 -0.0594925 0.000423 -1.64408 -0.111806 0.942679 2650 
1619 1 -0.0347439 -0.0331815 -0.0594801 0.000116 -1.88885 -2.62605 1.10333 2650 
577 1 -0.0348689 -0.0170587 -0.0590518 0.000423 -2.73163 -0.442322 1.61298 2650 
343 1 -0.036068 -0.0271472 -0.0583271 0.000423 -2.67698 -0.905203 1.65538 2650 
1202 1 -0.0305289 -0.0208399 -0.0579469 4.2e-05 1.44516 -0.155234 -8.75631 2650 
4311 1 -0.0366104 -0.0165937 -0.0579882 0.000423 -2.71491 -0.173671 1.71403 2650 
908 1 -0.0380342 -0.0141282 -0.0570645 0.000423 -2.64456 -0.246259 1.76263 2650 
114 1 -0.039003 -0.0293238 -0.0561247 0.000656 -2.51711 -0.233559 1.74922 2650 
4101 1 -0.0388345 -0.0196028 -0.0565229 0.000423 -2.62505 -0.16157 1.80356 2650 
2559 1 -0.0394117 -0.0173757 -0.056122 0.000423 -2.60108 -0.601515 1.82661 2650 
4312 1 -0.0413877 -0.0357111 -0.0546811 0.000423 -3.53302 1.4608 2.67411 2650 
868 1 -0.0329563 -0.00440813 -0.0539103 0.000116 1.58197 -1.09675 -3.25218 2650 
3741 1 -0.0436386 -0.0230659 -0.052902 0.000423 -1.92654 -0.294866 1.5892 2650 
3348 1 -0.0435955 -0.0153814 -0.0533335 0.000116 -2.48998 -0.229338 2.03534 2650 
3376 1 -0.0230119 -0.00650047 -0.0531594 0.000116 -3.57328 -0.228642 -8.29838 2650 
2557 1 -0.0443897 -0.0446451 -0.0522733 0.000423 -1.24706 -0.134248 1.05898 2650 
2855 1 -0.0441927 -0.0425326 -0.0529359 4.2e-05 3.60569 -2.57337 -3.01016 2650 
1107 1 -0.0437377 -0.0367759 -0.0525188 0.000656 -2.29731 0.146965 1.9132 2650 
4056 1 -0.0453147 -0.0208218 -0.0511643 0.000656 -2.30411 -0.624455 2.04068 2650 
34 1 -0.0459578 -0.00888417 -0.0509002 0.000423 -2.38365 -0.196725 2.1522 2650 
1392 1 -0.0475157 -0.0147602 -0.0498727 0.000116 -2.31411 -0.306115 2.20474 2650 
4016 1 -0.0473691 -0.0139105 -0.0500119 0.000116 -2.32676 -0.221282 2.2038 2650 
1197 1 -0.0480236 -0.0243492 -0.0493837 0.000116 -0.916266 -0.682684 0.891031 2650 
432 1 -0.0491238 -0.0245734 -0.0483948 4.2e-05 3.40693 -0.42244 -3.45825 2650 
733 1 -0.0490139 -0.0100688 -0.048401 0.000116 -2.25789 -0.212699 2.28648 2650 
689 1 -0.0492932 -0.0413463 -0.0476848 0.000423 -2.12253 -0.669026 1.99678 2650 
3603 1 -0.0498786 -0.00878259 -0.0475094 0.000116 -1.38975 -0.343902 1.45905 2650 
632 1 -0.0508165 -0.0395364 -0.0465049 0.000116 1.35676 -1.70607 -1.48254 2650 
831 1 -0.051958 -0.0153584 -0.0452259 0.000116 -2.10227 -0.162797 2.4152 2650 
1760 1 -0.0533919 -0.00475615 -0.0436407 4.2e-05 3.84567 -0.627837 -4.70495 2650 
3357 1 -0.0536322 -0.026035 -0.0432274 0.000116 -2.10281 -2.9144 2.60896 2650 
1180 1 -0.0540204 -0.00815894 -0.0427413 0.000116 -1.99714 -0.193762 2.52417 2650 
2256 1 -0.0544171 -0.0443392 -0.0422196 0.000116 0.626507 -0.91907 -1.971 2650 
1593 1 -0.054225 -0.0174276 -0.0419834 0.000423 -1.95513 -0.316294 2.52522 2650 
1901 1 -0.054079 -0.00398699 -0.0421713 0.000423 -2.43402 0.510037 3.12131 2650 
2404 1 -0.0553604 -0.0191532 -0.0409909 0.000116 -1.90636 -0.0626095 2.57464 2650 
3319 1 -0.05529 -0.0283396 -0.0405705 0.000423 -1.20746 -0.0878421 1.64555 2650 
2779 1 -0.0550827 -0.0274859 -0.0408515 0.000423 -1.46867 0.115529 1.98029 2650 
2028 1 -0.0558708 -0.0277202 -0.0397669 0.000423 -1.45802 -0.164639 2.04845 2650 
2788 1 -0.056557 -0.0084269 -0.038785 0.000423 -3.216 -0.72783 4.68962 2650 
3314 1 -0.0573575 -0.0231996 -0.0375908 0.000423 -1.651 -0.245385 2.51916 2650 
2705 1 -0.0584824 -0.0398679 -0.0363982 0.000116 -0.632998 -0.795212 1.01706 2650 
2242 1 -0.0584891 -0.00936603 -0.0358048 0.000423 -1.68445 -0.190347 2.75165 2650 
427 1 -0.0594188 -0.0414066 -0.0348487 0.000116 -0.337701 -0.523322 0.575797 2650 
1463 1 -0.0587296 -0.0338237 -0.0354089 0.000423 -1.50586 -0.543074 2.49764 2650 
1136 1 -0.0589461 -0.0291986 -0.0350472 0.000423 -1.28544 -0.173235 2.16199 2650 
850 1 -0.059579 -0.0305359 -0.034574 0.000116 -1.38548 0.125487 2.3875 2650 
95 1 -0.0599338 -0.00793153 -0.0339553 0.000116 -1.57884 -0.175041 2.78677 2650 
625 1 -0.0601964 -0.011669 -0.0334875 0.000116 -1.55329 -0.20267 2.79215 2650 
3840 1 -0.0598009 -0.0426991 -0.0330917 0.000656 -1.33418 -0.634265 2.41103 2650 
379 1 -0.0607311 -0.0288455 -0.0318541 0.000423 -1.14135 -0.158716 2.17603 2650 
2246 1 -0.0569149 -0.00684435 -0.0322773 0.000423 -1.24466 -0.217189 2.75178 2650 
2965 1 -0.00528384 -0.00605972 -0.0321769 4.2e-05 -0.794115 -0.365782 -4.47194 2650 
3881 1 -0.0617995 -0.023156 -0.0297284 0.000423 -0.966875 -0.216416 2.00994 2650 
2681 1 -0.0619831 -0.0119496 -0.0293436 0.000423 -1.37366 -0.197903 2.90162 2650 
71 1 -0.0201461 -0.00486322 -0.0297161 0.000116 -3.01996 -0.165229 -4.51405 2650 
3531 1 -0.062896 -0.0283699 -0.027332 0.000423 -0.825006 -0.445227 1.89849 2650 
2835 1 -0.0641056 -0.0040852 -0.025209 0.000116 -1.4513 2.832 3.69061 2650 
1012 1 -0.0162171 -0.00432012 -0.0260228 0.000423 -2.46508 -0.119083 -3.94033 2650 
2954 1 -0.0642753 -0.0170559 -0.0247731 0.000116 -1.15074 -0.18569 2.98568 2650 
336 1 -0.0639652 -0.0288409 -0.0240761 0.000656 -1.01816 -0.0316774 2.70503 2650 
3817 1 -0.0648741 -0.018493 -0.0231597 0.000116 -1.07675 -0.0773648 3.01617 2650 
902 1 -0.0647034 -0.0241497 -0.022725 0.000423 -0.873313 -0.0898696 2.48653 2650 
1410 1 -0.0658819 -0.0193151 -0.0201146 0.000116 -0.935628 -0.09228 3.06449 2650 
223 1 -0.0653892 -0.0170219 -0.0198863 0.000656 -0.940224 -0.203144 3.0916 2650 
2091 1 -0.000415234 -0.00709911 -0.0201308 0.000656 -0.150935 -0.868539 -1.82543 2650 
4150 1 -0.0663179 -0.0236261 -0.0186268 0.000116 -0.297686 -0.783876 1.05986 2650 
3390 1 -0.066321 -0.0169154 -0.0186157 0.000116 -0.86561 -0.138129 3.08385 2650 
1787 1 -0.0660527 -0.0106666 -0.0184383 0.000423 -0.863153 -0.371242 3.10273 2650 
327 1 -0.0664083 -0.00685768 -0.018578 4.2e-05 -0.861041 -0.156409 3.07784 2650 
3633 1 -0.0120406 -0.00454637 -0.0166927 0.000423 -1.14733 -0.247507 -1.56374 2650 
606 1 -0.000183 0.00391634 -0.016592 0.000116 0 -0.011753 0 2650 
302 1 -0.000462965 0.0047858 -0.0167127 0.000116 -0.0339633 -0.00487807 -0.0183933 2650 
2713 1 -0.000763 0.0108873 -0.016767 0.000116 0 -0.011753 0 2650 
3729 1 -0.0663459 -0.0222014 -0.0164145 0.000656 -0.794814 0.0166717 3.21256 2650 
2367 1 -0.0670603 -0.0153507 -0.0157462 0.000116 -0.732214 -0.170123 3.11836 2650 
2690 1 -0.00199054 -0.00347558 -0.0163087 0.000423 0.0256287 -0.277243 0.198337 2650 
2875 1 -0.00285458 -0.00238774 -0.0161782 0.000423 -0.0431898 -0.0299994 0.0160058 2650 
1991 1 -0.00393992 0.000662078 -0.0157974 0.000656 -0.0197706 -0.00214867 0.00868857 2650 
150 1 -0.00216627 0.000718235 -0.0163246 0.000423 -0.00913371 0.00501626 0.00203877 2650 
736 1 -0.003429 0.00184134 -0.016474 0.000116 0 -0.011753 0 2650 
2013 1 -0.00291112 0.00331643 -0.0162069 0.000423 0.00298908 -0.00809762 0.00112683 2650 
1698 1 -0.000658996 0.00345813 -0.0164716 0.000423 -0.0123561 0.00250859 -0.0148315 2650 
4296 1 -0.00135779 0.00447777 -0.015863 0.000423 0.00734757 -0.0161826 -0.00468825 2650 
188 1 -0.00068 0.00545834 -0.016516 0.000116 0 -0.011753 0 2650 
2301 1 -0.004222 0.00568934 -0.016305 4.2e-05 0 -0.011753 0 2650 
1219 1 -0.0017359 0.00585119 -0.0159408 0.000656 0.0247776 0.00956829 -0.0197628 2650 
3616 1 -0.000938 0.00625334 -0.016074 4.2e-05 0 -0.011753 0 2650 
3789 1 -0.000644045 0.00610068 -0.0161083 0.000116 0.030547 0.0102001 0.00865191 2650 
3546 1 -0.00113866 0.00672138 -0.0162957 0.000423 0.0217346 0.00883054 0.00600288 2650 
508 1 -0.0051199 0.00754584 -0.0159797 0.000116 -0.0751391 0.010407 0.0285118 2650 
3934 1 -0.001977 0.00867834 -0.016218 0.000116 0 -0.011753 0 2650 
2467 1 -0.0031236 0.0241215 -0.0161983 0.000423 0.0301791 0.103437 0.0421276 2650 
83 1 -0.0671471 -0.0207123 -0.0153776 0.000116 0.0497615 0.084792 0.834227 2650 
3904 1 -0.00408013 -0.00304573 -0.0152632 0.000116 -0.00761556 -0.0338408 0.0525297 2650 
4116 1 -0.00612866 -0.00233216 -0.0150067 0.000116 -0.073451 -0.0756968 0.00616169 2650 
1640 1 -0.000511083 -0.0016731 -0.0154697 4.2e-05 0.028899 -0.0133034 -0.0332578 2650 
2127 1 -0.00654091 -0.000827841 -0.0151236 0.000423 -0.149062 0.0132826 0.0569717 2650 
3733 1 -0.00494504 0.000148606 -0.015003 0.000656 -0.024164 0.0138988 0.0212093 2650 
676 1 -0.0014004 0.00209125 -0.0156587 0.000423 -0.0285827 0.0077176 0.0232959 2650 
1679 1 -0.00362074 0.00306201 -0.0157436 0.000423 -0.000267589 -0.00703629 -0.00433961 2650 
1618 1 -0.00659015 0.00369097 -0.0151669 0.000116 -0.0316941 0.0615295 0.00665882 2650 
2313 1 -0.00494862 0.00318548 -0.0152755 0.000656 -0.00048439 0.0541327 0.00642736 2650 
2399 1 -0.002418 0.00413034 -0.015541 0.000116 0 -0.011753 0 2650 
1620 1 -0.00654275 0.00474101 -0.0153435 0.000116 0.0529387 0.0514306 -0.00503745 2650 
3121 1 -0.00506324 0.00502855 -0.0155842 0.000423 0.0277737 -0.000599869 -0.0089826 2650 
234 1 -0.00332656 0.0048776 -0.0153255 0.000423 0.0351287 -0.0167305 0.0264562 2650 
3147 1 -0.000608894 0.00583395 -0.0154529 0.000116 0.0559179 -0.028746 -0.0359399 2650 
2969 1 -0.00127886 0.00684842 -0.0151662 0.000656 0.00356137 -0.00650063 0.00633515 2650 
2596 1 -0.00670818 0.00776496 -0.015226 0.000116 -0.0442582 -0.0431064 0.0384975 2650 
978 1 -0.005372 0.00737634 -0.015286 0.000116 0 -0.011753 0 2650 
3830 1 -0.006879 0.0102303 -0.015411 4.2e-05 0 -0.011753 0 2650 
86 1 -0.002064 0.00993434 -0.015055 0.000116 0 -0.011753 0 2650 
3177 1 -0.001068 0.00973434 -0.015412 4.2e-05 0 -0.011753 0 2650 
938 1 -0.000869 0.0111403 -0.015416 0.000116 0 -0.011753 0 2650 
1979 1 -0.00450675 0.0175479 -0.0150211 4.2e-05 -0.060479 0.115177 0.0648972 2650 
2209 1 -0.00401904 0.0256484 -0.0157706 0.000656 0.201035 0.0844023 -0.0555876 2650 
2701 1 -0.000409374 0.0305327 -0.0156966 0.000116 0.0331549 0.247236 -0.00676049 2650 
2588 1 -0.0673603 -0.0205237 -0.0144088 0.000116 -0.248462 -0.144253 1.16265 2650 
3140 1 -0.063402 -0.00510237 -0.0144028 0.000116 -9.82664 -0.162224 -2.23051 2650 
2166 1 -0.0109822 -0.00365157 -0.0143956 0.000116 -0.90129 -0.105131 -1.21151 2650 
93 1 -0.00768616 -0.00238164 -0.014935 0.000116 -0.0674932 -0.0307806 0.026204 2650 
3502 1 -0.001236 -0.00296066 -0.014816 4.2e-05 0 -0.011753 0 2650 
3196 1 -0.00618394 -0.00199569 -0.0145536 0.000423 -0.0151487 -0.0348726 0.0137497 2650 
330 1 -0.003637 -0.0021632 -0.0145755 4.2e-05 -0.0696064 -0.0147686 0.0345761 2650 
2645 1 -0.00373537 -0.000611689 -0.0143826 0.000656 -0.0527729 -0.00346266 0.0530189 2650 
1053 1 -0.007469 0.000288342 -0.014946 0.000116 0 -0.011753 0 2650 
2332 1 -0.00356261 0.000650057 -0.0147576 0.000423 -0.0109 -0.00809842 0.00848611 2650 
2827 1 -0.00376965 0.000282712 -0.0143655 0.000116 -0.0201753 -0.0226203 0.0017234 2650 
3441 1 -0.00134588 5.73996e-05 -0.0143444 0.000423 0.0511961 0.0224295 0.00157087 2650 
3637 1 -0.00318752 0.00131064 -0.0143101 0.000423 -0.00927015 0.0142513 -0.0137177 2650 
3239 1 -0.00235866 0.00109651 -0.0148845 0.000116 -0.00859694 0.0134975 -0.018679 2650 
2783 1 -0.00112295 0.00124277 -0.0143065 0.000423 0.0360827 0.036432 -0.00772183 2650 
222 1 -0.00165066 0.00260189 -0.0142842 0.000656 -0.000929496 -0.0489405 -0.0286938 2650 
220 1 -0.003649 0.00319334 -0.014897 4.2e-05 0 -0.011753 0 2650 
3322 1 -0.00448292 0.00397519 -0.0145897 0.000423 0.00353739 -0.017928 0.0139954 2650 
1584 1 -0.00161232 0.00581378 -0.0147115 0.000423 0.0363999 -0.00119645 -0.00933527 2650 
3564 1 -0.000147 0.00591934 -0.014738 0.000423 0 -0.011753 0 2650 
2438 1 -0.00568092 0.00677944 -0.0147059 0.000423 -0.00278545 -0.000108858 -0.00379545 2650 
3365 1 -0.002315 0.00655634 -0.014552 0.000116 0 -0.011753 0 2650 
4190 1 -0.00771785 0.0085608 -0.014609 0.000423 -0.009489 7.8582e-05 0.00632979 2650 
3515 1 -0.00663994 0.00845106 -0.0146052 0.000656 -0.0097631 -0.011449 0.0111585 2650 
1986 1 -0.00342309 0.00883532 -0.0145597 0.000656 0.00762539 0.0149956 0.0116892 2650 
1228 1 -0.00135446 0.0100065 -0.0149725 0.000423 -0.00123313 -0.0118667 -0.000623591 2650 
371 1 -0.00050507 0.0103724 -0.0148695 0.000423 0.000724313 -0.00601752 -0.0061741 2650 
3669 1 -0.00040299 0.0111455 -0.0144055 0.000423 0.00220454 -0.00743356 -0.00383523 2650 
3632 1 -0.00825717 0.0127721 -0.0142728 0.000423 -0.0240755 -0.00064867 0.0133566 2650 
3455 1 -0.00249253 0.0158657 -0.0145342 0.000423 0.0108365 0.0310717 0.0944532 2650 
3932 1 -0.00597338 0.0178647 -0.0144356 0.000116 -0.0403354 0.0602269 -0.135114 2650 
1254 1 -0.00445189 0.0231167 -0.0145097 0.000423 0.138718 -0.0210939 0.0394833 2650 
1357 1 -0.00696587 0.0320516 -0.0146651 0.000423 0.0624779 0.287902 -0.0352894 2650 
2206 1 -0.00131163 0.0496345 -0.014737 0.000656 0.225245 -0.271565 0.0940273 2650 
2271 1 -0.067423 -0.044608 -0.0141123 0.000116 0.616808 0.649818 -2.94687 2650 
163 1 -0.0671982 -0.0335418 -0.0136878 0.000423 -0.556314 -0.0498735 2.73114 2650 
955 1 -0.0088747 -0.00259643 -0.0139043 0.000116 -0.0393459 -0.0406554 0.0762402 2650 
1808 1 -0.00583372 -0.00145187 -0.0138329 0.000423 -0.0837398 0.00669739 0.0863213 2650 
2413 1 -0.00461018 -0.00122205 -0.0141046 4.2e-05 -0.0826713 -0.0311639 0.0536157 2650 
4126 1 -0.00308722 -0.000408034 -0.0135225 0.000116 -0.0261531 0.0084042 0.00402279 2650 
541 1 -0.00482346 0.000115085 -0.0139747 4.2e-05 -0.0428204 0.0143713 0.0426846 2650 
3778 1 -0.0041805 0.000118572 -0.0136138 0.000423 -0.0441284 0.0265152 0.0540744 2650 
2817 1 -0.00335052 0.000406226 -0.0141557 0.000116 0.0169543 0.0239719 -0.0593677 2650 
450 1 -0.00711649 0.00255415 -0.0136742 0.000656 0.0113486 0.0469175 0.00740751 2650 
3645 1 -0.00363088 0.00363534 -0.0136045 0.000423 -0.0384881 -0.00405051 0.0134405 2650 
3587 1 -0.00599208 0.00409197 -0.0138672 0.000116 0.00461134 0.0023037 -0.00278329 2650 
2283 1 -0.000106647 0.00455301 -0.0141044 0.000116 -0.0318858 -0.01081 -0.0228231 2650 
104 1 -0.00255676 0.00493831 -0.0139034 4.2e-05 -0.00674979 0.0150481 0.0116551 2650 
3380 1 -0.00215495 0.00511232 -0.0139955 0.000116 -0.00133046 -0.0120531 0.0302183 2650 
4165 1 -0.00525962 0.00599654 -0.0138204 0.000656 0.00463225 0.00751739 0.0156563 2650 
2322 1 -0.00764473 0.00786405 -0.0137846 0.000656 -0.00731325 -0.00774178 0.000492004 2650 
1288 1 -0.002467 0.00785934 -0.014044 0.000116 0 -0.011753 0 2650 
2222 1 -0.000169 0.00848834 -0.014111 0.000423 0 -0.011753 0 2650 
581 1 -0.005568 0.00938034 -0.014167 0.000423 0 -0.011753 0 2650 
192 1 -0.0013436 0.00902875 -0.0134569 0.000116 0.052188 -0.0401332 -0.079726 2650 
2483 1 -0.00922095 0.0106792 -0.0138464 0.000116 0.00258646 -0.0218162 0.0129531 2650 
1476 1 -0.006941 0.0106593 -0.013435 0.000423 0 -0.011753 0 2650 
1409 1 -0.00044 0.0116393 -0.013868 0.000116 0 -0.011753 0 2650 
4257 1 -0.00911202 0.0124982 -0.0140075 0.000116 0.0616028 0.00285205 -0.0504011 2650 
675 1 -0.00424248 0.0170148 -0.0138114 0.000423 -0.0171714 0.0807922 0.0289201 2650 
3216 1 -0.00306089 0.0186494 -0.0139668 0.000423 -0.0601615 0.128493 -0.0913681 2650 
1347 1 -0.00846817 0.0396935 -0.014072 0.000423 -0.122682 0.201852 0.0945749 2650 
4097 1 -0.00946671 -0.00253135 -0.0131758 0.000423 0.0466953 0.00407814 0.0102145 2650 
388 1 -0.00848337 -0.000248126 -0.0134172 0.000116 0.0212466 0.0335067 0.0250458 2650 
3200 1 -0.00695703 0.00047432 -0.0127423 0.000423 0.0194602 0.038646 0.0363375 2650 
3551 1 -0.005293 3.42425e-07 -0.013215 0.000423 0 -0.011753 0 2650 
3589 1 -0.0107581 0.00137627 -0.0129181 0.000116 0.136081 0.0660401 -0.105751 2650 
623 1 -0.00666483 0.000937545 -0.0130069 0.000116 0.0111087 0.0496069 -0.0271762 2650 
3201 1 -0.00606522 0.000892959 -0.0126847 0.000423 -0.0357335 -0.0343151 -0.000191327 2650 
248 1 -0.00644659 0.00162331 -0.0130356 0.000423 -0.0267192 -0.0283469 0.0533411 2650 
2525 1 -0.004063 0.00208634 -0.013231 4.2e-05 0 -0.011753 0 2650 
1595 1 -0.00750462 0.00279617 -0.0126572 0.000423 -0.0081111 0.00198047 0.0261702 2650 
2619 1 -0.005851 0.00290234 -0.012854 0.000116 0 -0.011753 0 2650 
2922 1 -0.00420615 0.00250445 -0.0130507 0.000116 -0.0492521 -0.0166623 -0.0574868 2650 
1125 1 -0.00347429 0.0024894 -0.0129718 0.000423 -0.0447254 0.0166037 0.0212545 2650 
3880 1 -0.010277 0.00381834 -0.012913 0.000423 0 -0.011753 0 2650 
2609 1 -0.00886 0.00362634 -0.013248 0.000116 0 -0.011753 0 2650 
2219 1 -0.0065142 0.00365 -0.0133806 0.000423 0.0573797 0.046564 0.0166916 2650 
3917 1 -0.003984 0.00438734 -0.012703 0.000116 0 -0.011753 0 2650 
2059 1 -0.003583 0.00459634 -0.012756 0.000116 0 -0.011753 0 2650 
2918 1 -0.00757 0.00497734 -0.012948 0.000116 0 -0.011753 0 2650 
3798 1 -0.00113388 0.00531999 -0.0130689 0.000116 -0.0483102 0.213285 0.0286816 2650 
4078 1 -0.00788553 0.0068456 -0.0127896 0.000423 -0.0196946 -0.00953845 0.00130892 2650 
1427 1 -0.002948 0.00692734 -0.013376 4.2e-05 0 -0.011753 0 2650 
3259 1 -0.0082311 0.00807484 -0.0133027 0.000116 -0.00597746 -0.00895275 0.0028953 2650 
1795 1 -0.008775 0.00892634 -0.012959 0.000423 0 -0.011753 0 2650 
1769 1 -0.0054051 0.00877615 -0.0130633 0.000656 -0.011011 -0.0134467 0.00306932 2650 
1617 1 -0.00469104 0.00916011 -0.0127963 0.000116 -0.0286454 0.00715769 -0.0828343 2650 
205 1 -0.000744 0.00964334 -0.01334 0.000116 0 -0.011753 0 2650 
963 1 -0.00313259 0.011264 -0.0126863 0.000116 -0.0512099 -0.0542754 -0.0325787 2650 
1775 1 -0.00822377 0.0123632 -0.0130234 0.000423 -7.29146e-05 -0.011186 -0.000346901 2650 
3644 1 -0.000733 0.0123143 -0.013392 0.000423 0 -0.011753 0 2650 
2109 1 -0.00445627 0.0179982 -0.0131357 0.000423 -0.0277695 0.107912 0.0279852 2650 
4267 1 -0.00464151 0.0269775 -0.0133664 4.2e-05 0.0268407 0.137161 0.0861779 2650 
819 1 -0.00577238 0.0321547 -0.0130806 0.000423 0.076373 0.150736 0.0329282 2650 
3514 1 -0.067244 -0.0238185 -0.0122253 0.000656 -0.476922 -0.218062 2.62326 2650 
2072 1 -0.00951255 -0.00332108 -0.0119786 0.000116 -0.308203 -0.0198903 -0.388101 2650 
939 1 -0.00640468 -0.00358741 -0.0121796 0.000116 -0.70686 -0.0694084 -1.30537 2650 
1393 1 -0.0112964 -0.0025397 -0.0122607 0.000116 -0.0365642 -0.00979486 0.0367338 2650 
3960 1 -0.00872498 -0.00248469 -0.012449 0.000423 -0.0011096 -0.0310235 -0.0206256 2650 
545 1 -0.002328 -0.00188866 -0.012432 4.2e-05 0 -0.011753 0 2650 
3295 1 -0.00950006 -0.000870378 -0.0123393 0.000656 -0.0525799 0.0428321 0.0901864 2650 
2819 1 -0.007468 -0.00135466 -0.012046 0.000116 0 -0.011753 0 2650 
2468 1 -0.003167 -0.00151566 -0.012131 0.000423 0 -0.011753 0 2650 
1763 1 -0.001143 -0.00122766 -0.012442 0.000656 0 -0.011753 0 2650 
3303 1 -0.0106814 -0.00018231 -0.0121199 0.000656 -0.0221167 0.0277524 0.0366297 2650 
509 1 -0.00873148 -0.000425415 -0.0121967 0.000116 0.112775 -0.0283237 -0.0229232 2650 
3191 1 -0.00633475 -0.000553392 -0.0122065 0.000656 -0.00833246 0.0061838 -0.01197 2650 
1422 1 -0.003881 0.000618342 -0.012349 4.2e-05 0 -0.011753 0 2650 
2939 1 -0.00919116 0.00149626 -0.0121306 0.000116 -0.00341769 -0.0275913 0.0148239 2650 
1799 1 -0.00323473 0.00143086 -0.0120595 0.000423 7.10678e-05 -0.0118308 4.63239e-05 2650 
3956 1 -0.009002 0.002231 -0.012287 0.000656 -0.000640959 -0.0104529 -0.000368355 2650 
3389 1 -0.010415 0.00288434 -0.012026 0.000116 0 -0.011753 0 2650 
2957 1 -0.00284443 0.00294153 -0.0122482 4.2e-05 0.0205169 0.0248349 -0.000218849 2650 
2194 1 -0.00257079 0.00459125 -0.0126034 4.2e-05 0.00491046 0.00111596 0.00228026 2650 
411 1 -0.0100034 0.00492429 -0.0120856 0.000116 -0.00787832 -0.00657823 -8.20909e-05 2650 
2512 1 -0.00984355 0.0054223 -0.011947 0.000116 0.002514 -0.0160812 -0.0313025 2650 
3826 1 -0.009208 0.00477934 -0.012552 0.000116 0 -0.011753 0 2650 
1261 1 -0.007462 0.00543634 -0.012403 0.000423 0 -0.011753 0 2650 
3316 1 -0.008979 0.00553234 -0.012376 0.000423 0 -0.011753 0 2650 
3362 1 -0.002672 0.00554534 -0.012199 0.000116 0 -0.011753 0 2650 
3446 1 -0.002592 0.00653934 -0.012627 0.000423 0 -0.011753 0 2650 
3030 1 -0.001189 0.00704234 -0.012596 0.000116 0 -0.011753 0 2650 
2547 1 -0.0105824 0.00712271 -0.0125217 0.000423 -0.0187488 0.0289195 0.0215408 2650 
2913 1 -0.005911 0.00753838 -0.0124306 0.000116 -0.028239 -0.0119827 -0.0130286 2650 
191 1 -0.011348 0.00836334 -0.012254 0.000116 0 -0.011753 0 2650 
4318 1 -0.00828882 0.00809019 -0.0124974 0.000423 -0.00589465 -0.00768269 0.00318441 2650 
713 1 -0.00658541 0.00797825 -0.0122548 0.000423 -0.0229952 -0.0104665 0.0222494 2650 
3950 1 -0.00476493 0.00793034 -0.0121048 0.000656 -0.0480891 -0.0570868 -0.0835625 2650 
1495 1 -0.004483 0.00851034 -0.012591 0.000116 0 -0.011753 0 2650 
3847 1 -0.0097338 0.00897047 -0.0124043 0.000656 6.67707e-05 -0.0116743 2.1441e-05 2650 
3173 1 -0.004958 0.00917134 -0.012321 4.2e-05 0 -0.011753 0 2650 
949 1 -0.00547199 0.00935598 -0.0124052 0.000116 -0.0176518 0.0277962 -0.00593252 2650 
3684 1 -0.00453944 0.00935237 -0.0119352 0.000116 0.00413104 -0.0230128 -0.00941473 2650 
2630 1 -0.001036 0.00937934 -0.012074 4.2e-05 0 -0.011753 0 2650 
4002 1 -0.000443 0.00920334 -0.01223 0.000116 0 -0.011753 0 2650 
65 1 -0.0116195 0.0102006 -0.0119457 0.000116 -0.00839689 -0.0185298 0.0531382 2650 
1250 1 -0.007399 0.00968934 -0.012448 0.000423 0 -0.011753 0 2650 
4314 1 -0.0106258 0.0102762 -0.0118579 0.000423 -0.0535146 -0.0274014 -0.00338754 2650 
233 1 -0.00480906 0.0104425 -0.0124388 0.000423 0.000669097 -0.00994222 -0.0330396 2650 
1423 1 -0.00145 0.0108593 -0.012526 4.2e-05 0 -0.011753 0 2650 
2205 1 -0.00501375 0.0132768 -0.0118558 0.000656 -0.00241752 0.00375043 0.00610124 2650 
1143 1 -0.00120669 0.0138558 -0.0121832 0.000423 0.0070315 0.0110531 -0.00616027 2650 
884 1 -0.00687021 0.0144115 -0.0121968 0.000656 -0.0213431 0.0225291 0.0346991 2650 
681 1 -0.0676422 -0.0233523 -0.0112909 0.000423 -0.443752 -0.242728 2.65844 2650 
3679 1 -0.012092 -0.00317766 -0.011604 0.000116 0 -0.011753 0 2650 
3505 1 -0.006952 -0.00221966 -0.011235 4.2e-05 0 -0.011753 0 2650 
1022 1 -0.002093 -0.00234966 -0.011454 0.000423 0 -0.011753 0 2650 
440 1 -0.00061 -0.000917658 -0.011485 4.2e-05 0 -0.011753 0 2650 
950 1 -0.0099256 -0.000452464 -0.0112931 0.000116 0.00737636 0.000157986 0.0400931 2650 
1468 1 -0.00324788 0.000667862 -0.0115813 0.000423 -0.0197001 -0.0470204 -0.0326717 2650 
4215 1 -0.0111804 0.00119769 -0.0115184 0.000423 0.000531233 -0.0108162 0.000832329 2650 
369 1 -0.0100499 0.000914751 -0.0112999 0.000423 0.043274 0.0567536 0.0397147 2650 
2579 1 -0.00873533 0.00149784 -0.0111354 0.000423 -0.000311164 -0.0069809 0.00202215 2650 
3643 1 -0.00693616 0.000980705 -0.0114852 0.000423 -0.0386014 -0.00662447 0.00484329 2650 
3535 1 -9.9e-05 0.00149434 -0.011488 0.000423 0 -0.011753 0 2650 
2279 1 -0.011345 0.00175434 -0.01145 0.000116 0 -0.011753 0 2650 
3894 1 -0.005583 0.00225334 -0.011098 0.000116 0 -0.011753 0 2650 
1063 1 -0.009531 0.00280834 -0.011683 0.000116 0 -0.011753 0 2650 
3383 1 -0.011681 0.00380334 -0.011229 0.000116 0 -0.011753 0 2650 
1093 1 -0.00573081 0.00373846 -0.0116022 4.2e-05 -0.0377884 0.0174852 0.109535 2650 
1657 1 -0.00965062 0.00410968 -0.0112533 0.000656 -0.0116375 -0.0115716 0.0121112 2650 
2294 1 -0.004894 0.00448934 -0.011565 0.000116 0 -0.011753 0 2650 
1569 1 -0.00359426 0.00418467 -0.0116329 0.000423 -0.0101167 -0.00131963 0.0156048 2650 
1171 1 -0.00814027 0.00513014 -0.0115529 0.000116 0.0150347 -0.00434742 -0.0519214 2650 
878 1 -0.003908 0.00497234 -0.011202 4.2e-05 0 -0.011753 0 2650 
708 1 -0.00260619 0.00484677 -0.0116758 0.000423 -0.0031746 -0.00580761 -0.0104884 2650 
1215 1 -0.0109461 0.00596239 -0.011213 0.000656 -0.0157163 -0.0116904 0.0020601 2650 
1822 1 -0.008034 0.00554234 -0.011166 0.000116 0 -0.011753 0 2650 
1758 1 -0.00201 0.00580334 -0.01144 4.2e-05 0 -0.011753 0 2650 
1237 1 -0.00981902 0.00676864 -0.0111062 0.000423 -0.0218248 0.036727 -0.0534488 2650 
4027 1 -0.003218 0.00693434 -0.011075 0.000116 0 -0.011753 0 2650 
2409 1 -0.002586 0.00687334 -0.011527 4.2e-05 0 -0.011753 0 2650 