ITEM: TIMESTEP
5895708
ITEM: NUMBER OF ATOMS
4349
ITEM: BOX BOUNDS ff ff ff
-0.15 0.15
-0.15 0.06
-0.15 0.15
ITEM: ATOMS id type x y z radius vx vy vz density 
2274 1 -0.00449471 -0.0538877 -0.0687374 0.000116 6.78923 0.263271 -0.443945 2650 
1670 1 -0.00160409 -0.0525894 -0.0685593 0.000423 -1.98121 0.101572 0.0463545 2650 
3613 1 -0.0063026 -0.0480209 -0.0686694 4.2e-05 -3.73552 -0.0227881 0.342853 2650 
1961 1 -0.0138844 -0.0518402 -0.0674703 0.000116 -0.263752 -2.20581 0.0543162 2650 
3577 1 -0.0173261 -0.0510584 -0.0666696 0.000116 -2.84503 -0.660678 0.739365 2650 
2457 1 -0.0168773 -0.0484844 -0.0664689 0.000423 -2.85761 -0.103081 0.725583 2650 
4139 1 -0.0359459 -0.0535606 -0.0587615 0.000116 -1.04178 0.258219 0.637283 2650 
2855 1 -0.0408885 -0.0556515 -0.0555278 4.2e-05 -1.14842 0.110139 0.845649 2650 
4150 1 -0.0413207 -0.0450649 -0.0551146 0.000116 1.07612 0.669049 -0.806795 2650 
3308 1 -0.0445074 -0.0611346 -0.0521732 0.000423 -1.95226 -0.047262 1.66542 2650 
4331 1 -0.0467 -0.0562544 -0.0506372 0.000116 -0.411887 0.819332 0.379861 2650 
200 1 -0.0542175 -0.0626367 -0.0421871 0.000116 4.71118 0.64733 -6.80716 2650 
3425 1 -0.0536907 -0.0623707 -0.0421153 0.000423 6.11273 0.0362574 -4.24879 2650 
2256 1 -0.0574357 -0.0532087 -0.0380285 0.000116 0.304715 -0.600913 -0.460221 2650 
1563 1 -0.0598609 -0.0478506 -0.0334608 0.000423 -1.653 0.703389 2.9572 2650 
1417 1 -0.0614717 -0.0552802 -0.0310846 0.000116 -0.994819 -0.046608 1.96731 2650 
19 1 -0.063303 -0.0597266 -0.0263756 0.000423 0.365657 0.178322 -0.877599 2650 
854 1 -0.0640749 -0.0492407 -0.0252873 0.000116 5.60772 1.46826 -14.2092 2650 
3918 1 -0.0646139 -0.0530011 -0.0238762 0.000116 0.128537 2.68739 -0.347847 2650 
981 1 -0.0520943 -0.0480338 -0.0223054 4.2e-05 -0.788929 -1.16924 -3.33704 2650 
3692 1 -0.0672591 -0.0498008 -0.014874 0.000116 0.116922 0.240107 -0.528708 2650 
649 1 -0.0684236 -0.0586225 -0.00795185 0.000116 0.169444 -0.000375917 -1.45803 2650 
4316 1 -0.0681245 -0.0558721 -0.00787427 0.000423 -0.0647226 0.428004 0.55995 2650 
2599 1 -0.0686044 -0.0466352 -0.00620133 0.000116 0.102411 -0.738599 -1.13296 2650 
2395 1 -0.0685403 -0.0466695 0.00687397 0.000116 -0.514097 0.00888406 -5.12606 2650 
3426 1 -0.0663007 -0.046503 0.0175264 0.000423 0.699923 -0.551059 2.64774 2650 
2612 1 -0.0640158 -0.0494751 0.0254361 0.000116 -0.753996 0.579386 -1.8976 2650 
3785 1 -0.0621539 -0.0461317 0.029697 0.000116 -1.50419 0.940242 -3.14819 2650 
2954 1 -0.0547966 -0.0610046 0.0417416 0.000116 -0.736691 -0.978633 -0.967096 2650 
2790 1 -0.0473352 -0.0514278 0.0496218 0.000423 1.75421 -0.0180757 1.67338 2650 
3348 1 -0.0456971 -0.0599282 0.0515441 0.000116 -0.171785 -1.05348 -0.152298 2650 
1060 1 -0.0457617 -0.0516949 0.0514868 0.000116 2.31302 -0.541979 2.05582 2650 
1208 1 -0.0419971 -0.0506379 0.0546942 4.2e-05 0.932584 0.387234 0.716087 2650 
3069 1 -0.00211651 -0.0617558 0.058244 4.2e-05 -6.17657 0.514656 -4.37288 2650 
868 1 -0.0350345 -0.0624507 0.0593095 0.000116 -9.21334 0.415726 -5.44237 2650 
3073 1 -0.0279762 -0.0616795 0.0595475 4.2e-05 -10.353 0.917079 -7.98793 2650 
921 1 -0.0338191 -0.046655 0.0596592 0.000423 2.11153 -0.277242 1.19697 2650 
1239 1 -0.0266473 -0.0592341 0.0631891 0.000423 1.38457 -0.140019 0.583884 2650 
689 1 -0.0233986 -0.0622907 0.0644489 0.000423 -1.35258 -0.0312926 -0.438143 2650 
3331 1 -0.0217667 -0.0497254 0.065032 0.000423 2.40378 0.410219 0.804562 2650 
3038 1 -0.018068 -0.0613311 0.0664723 0.000116 1.53729 -1.68177 0.417854 2650 
575 1 -0.0092783 -0.0620819 0.0679211 0.000423 0.946098 0.21052 -0.311359 2650 
2667 1 -0.0087108 -0.0576721 0.0680226 0.000423 1.4649 0.357005 0.187592 2650 
2160 1 -0.00897632 -0.0535615 0.0682968 0.000116 0.459821 0.741644 0.0604347 2650 
3957 1 -0.000809877 -0.0459599 0.0683414 0.000656 2.12882 0.34523 0.0252275 2650 
1721 1 -0.00120729 -0.0560569 0.0688735 0.000116 -3.27248 0.236819 -0.0573635 2650 
758 1 -0.00153565 -0.0482451 0.068867 0.000116 2.777 0.951888 0.0619236 2650 
4016 1 -0.00344837 -0.0440814 -0.0687978 0.000116 0.707712 -0.309684 -0.0354728 2650 
4132 1 -0.00340042 -0.0190688 -0.0688001 0.000116 -3.20017 -0.130155 0.158167 2650 
1863 1 -0.00499735 -0.0107077 -0.0687767 4.2e-05 -3.19397 -0.207698 0.232075 2650 
2705 1 -0.00495868 -0.00365278 -0.0687054 0.000116 -2.6224 -0.214525 0.189266 2650 
3547 1 -0.00387199 -0.0340736 -0.0684687 0.000423 -2.11062 -0.169373 0.119358 2650 
3366 1 -0.0091595 -0.0322624 -0.0682724 0.000116 -1.23282 -0.379636 0.165396 2650 
1104 1 -0.00585199 -0.0288816 -0.0680952 0.000656 -2.20479 -0.01108 0.189476 2650 
1784 1 -0.00319936 -0.0270683 -0.0685034 0.000423 -2.1041 -0.42102 0.0982692 2650 
2123 1 -0.00132854 -0.0269796 -0.0685652 0.000423 -2.66012 -0.152814 0.0515434 2650 
1213 1 -0.000364187 -0.0264214 -0.0683453 0.000656 -2.60571 -0.190414 0.0138779 2650 
235 1 -0.00484469 -0.0244861 -0.0684067 0.000423 -2.12824 0.14709 0.150726 2650 
358 1 -0.000661622 -0.0248641 -0.0685749 0.000423 -2.41677 0.125865 0.0233174 2650 
1475 1 -0.000988834 -0.0238135 -0.0685709 0.000423 -2.52437 0.160444 0.0364029 2650 
3095 1 -6.8979e-05 -0.0225696 -0.068578 0.000423 -2.4957 -0.199578 0.0025103 2650 
2651 1 -0.0044705 -0.0216283 -0.0684322 0.000423 -1.81096 0.500691 0.118306 2650 
341 1 -0.00317295 -0.0219941 -0.0682726 0.000656 -2.87284 -0.320948 0.133515 2650 
4376 1 -0.00873273 -0.0190011 -0.0684028 4.2e-05 -3.20887 -0.189507 0.409664 2650 
2593 1 -0.00966363 -0.0189023 -0.0682029 0.000116 -3.16183 -0.10258 0.447997 2650 
1960 1 -0.0115771 -0.0174616 -0.0679043 0.000116 -1.95623 1.16946 0.33352 2650 
3399 1 -0.00765076 -0.0162165 -0.0685323 4.2e-05 -3.18051 0.150585 0.355064 2650 
3168 1 -0.00887247 -0.0138024 -0.0683103 0.000116 -2.17621 -0.447708 0.282657 2650 
1317 1 -0.00679092 -0.00545352 -0.0686228 4.2e-05 -3.18693 -0.12416 0.315379 2650 
2000 1 -0.00962319 -0.00171353 -0.0678995 0.000423 -0.616462 0.212718 0.0873693 2650 
4037 1 -0.0110812 -0.0380484 -0.0675293 0.000116 1.38123 1.29795 -2.08721 2650 
3652 1 -0.0107417 -0.0374287 -0.0677316 0.000423 -1.50861 0.475525 0.239254 2650 
2167 1 -0.0117721 -0.0320061 -0.0678708 0.000116 -2.34747 -0.523893 0.407166 2650 
35 1 -0.0110301 -0.0180519 -0.0676852 0.000423 -2.38633 0.0933835 0.38888 2650 
3534 1 -0.00977488 -0.00794938 -0.0678779 0.000423 -2.99934 0.188048 0.431925 2650 
1537 1 -0.012458 -0.00220178 -0.0678234 4.2e-05 3.71311 -0.316947 -0.682033 2650 
2928 1 -0.0183993 -0.0430101 -0.0663815 0.000116 13.2366 0.758051 -3.66885 2650 
3540 1 -0.016838 -0.0419227 -0.0663921 0.000423 -0.675403 -0.0752542 0.266457 2650 
375 1 -0.0170541 -0.0251005 -0.0664237 0.000423 -2.38902 -0.0500492 0.613377 2650 
2430 1 -0.0160461 -0.0245974 -0.0664359 0.000656 -2.40049 0.0150083 0.579784 2650 
1669 1 -0.0168502 -0.023179 -0.0664757 0.000423 -2.38818 0.167938 0.605354 2650 
4338 1 -0.0158161 -0.0219477 -0.0669106 0.000116 1.77607 -0.32492 -0.140546 2650 
3786 1 -0.0186184 -0.0124559 -0.0663203 0.000116 -3.54623 -0.069997 0.99555 2650 
3845 1 -0.0141861 -0.0122425 -0.0668578 0.000656 -2.68307 0.511706 0.569303 2650 
688 1 -0.0159928 -0.0099963 -0.0666872 0.000423 -2.2169 0.309503 0.531655 2650 
3256 1 -0.0120817 -0.00740164 -0.0664962 0.000116 -1.87997 -0.301095 -10.3199 2650 
15 1 -0.00983306 -0.00578281 -0.066815 0.000423 -2.51428 -0.159542 3.17186 2650 
1752 1 -0.0164703 -0.00480275 -0.0669622 4.2e-05 -3.10807 -0.102849 0.764472 2650 
1687 1 -0.0182968 -0.0332189 -0.0660922 0.000423 -2.39341 0.283617 0.662586 2650 
2224 1 -0.0177471 -0.0265647 -0.0662419 0.000423 -2.44718 -0.120805 0.655633 2650 
3339 1 -0.0186934 -0.0198338 -0.0659811 0.000423 -2.45647 -0.363678 0.695952 2650 
3351 1 -0.0204661 -0.00858791 -0.0657736 0.000116 -3.02464 -0.208478 0.941146 2650 
1071 1 -0.0193576 -0.00859925 -0.0661083 0.000116 -2.90416 0.475628 0.850388 2650 
811 1 -0.0183971 -0.00310807 -0.0660644 0.000423 -2.64722 0.552933 0.737178 2650 
3409 1 -0.0195026 -0.0337527 -0.0655046 0.000656 -2.51922 0.358043 0.750044 2650 
1500 1 -0.0214856 -0.0146851 -0.0652304 0.000116 -3.33955 -0.552586 0.448527 2650 
1675 1 -0.0205555 -0.000895432 -0.0654249 0.000423 -2.1471 -0.0589828 0.674584 2650 
1587 1 -0.0246088 -0.0375005 -0.0640106 0.000423 -0.496056 -0.734255 0.190708 2650 
3891 1 -0.0241234 -0.0116877 -0.0641951 0.000423 -2.96149 -0.356317 1.11288 2650 
2846 1 -0.0275529 -0.00219483 -0.0632143 4.2e-05 -2.27461 -0.0933942 0.991423 2650 
432 1 -0.0298425 -0.0275565 -0.0621662 4.2e-05 4.84143 -0.497939 -2.3241 2650 
1870 1 -0.0319567 -0.00583329 -0.0611063 4.2e-05 -1.99501 -0.00809733 1.04333 2650 
3945 1 -0.0324836 -0.00399072 -0.0608278 4.2e-05 -3.65796 -0.158182 1.95344 2650 
2074 1 -0.0336708 -0.0169687 -0.0600941 0.000116 -2.76519 -0.222882 1.54934 2650 
4204 1 -0.0320738 -0.00980373 -0.0606154 0.000423 -2.69306 -0.175585 1.425 2650 
468 1 -0.034242 -0.0361932 -0.0594175 0.000423 -1.96464 0.552873 1.13221 2650 
3574 1 -0.0349646 -0.0211456 -0.0593521 0.000116 -2.61071 0.113133 1.46058 2650 
2664 1 -0.033945 -0.0159877 -0.0595877 0.000423 -2.74448 -0.157685 1.56343 2650 
2317 1 -0.0329485 -0.00848415 -0.0598799 0.000656 -2.08158 0.387369 1.14537 2650 
2680 1 -0.0357594 -0.0266082 -0.0585168 0.000423 -2.34213 -0.403109 1.43127 2650 
579 1 -0.0354349 -0.0160981 -0.0587139 0.000423 -2.76612 -0.37487 1.6694 2650 
1207 1 -0.0373573 -0.00752436 -0.0579624 4.2e-05 -1.74057 -0.299868 1.12181 2650 
1760 1 -0.036795 -0.00511125 -0.058321 4.2e-05 2.13418 -0.461853 -1.34647 2650 
3543 1 -0.0378056 -0.0276682 -0.0572162 0.000423 -2.22122 0.160504 1.46767 2650 
491 1 -0.0376243 -0.0109146 -0.0573356 0.000423 -2.09688 0.116851 1.37599 2650 
1833 1 -0.0398915 -0.0280167 -0.0561577 0.000116 -2.28298 -0.126741 1.62171 2650 
2208 1 -0.0385297 -0.0279829 -0.0564506 0.000656 -2.19095 0.156895 1.4954 2650 
1794 1 -0.0385466 -0.0127826 -0.0567196 0.000423 -2.36553 -0.0871547 1.60761 2650 
1325 1 -0.0383922 -0.0109919 -0.0565442 0.000656 -2.0911 0.208342 1.4198 2650 
3024 1 -0.0397625 -0.00899461 -0.0562491 0.000116 -0.324109 0.6487 0.229113 2650 
1943 1 -0.0392277 -0.00567554 -0.0566234 0.000116 -2.79669 0.246717 1.93749 2650 
691 1 -0.0406259 -0.0295165 -0.0552494 0.000423 -2.40395 0.091493 1.76767 2650 
3527 1 -0.0402419 -0.0283288 -0.0555297 0.000423 -2.07227 -0.214556 1.50175 2650 
1433 1 -0.040232 -0.0252771 -0.0552503 0.000656 -2.26905 -0.0229883 1.65227 2650 
3874 1 -0.0399254 -0.0190691 -0.0557577 0.000423 -2.46855 -0.0961211 1.76761 2650 
2418 1 -0.0410209 -0.0176235 -0.0554301 4.2e-05 -2.52654 -0.00516273 1.86976 2650 
4017 1 -0.0406698 -0.010178 -0.0555967 0.000116 -1.16577 -0.0218624 0.852779 2650 
3815 1 -0.0403417 -0.0102381 -0.0558352 0.000116 -1.40025 0.0383106 1.0117 2650 
1912 1 -0.0413678 -0.0392106 -0.0546961 0.000423 -1.85074 -0.465401 1.39974 2650 
935 1 -0.0412739 -0.0383727 -0.0547669 0.000423 -1.7015 -0.486811 1.28232 2650 
1372 1 -0.0407129 -0.0335275 -0.0551852 0.000423 -2.18674 -0.026937 1.61327 2650 
753 1 -0.0412256 -0.0294089 -0.0551858 0.000116 -2.48317 -0.0490268 1.85501 2650 
1990 1 -0.0410468 -0.0263492 -0.0546477 0.000656 -2.32451 0.00708974 1.74598 2650 
4323 1 -0.0416115 -0.0239819 -0.0545109 0.000423 -2.25913 0.31684 1.72453 2650 
1453 1 -0.0410375 -0.018733 -0.0549443 0.000423 -2.47737 -0.133077 1.85032 2650 
636 1 -0.0418836 -0.00622541 -0.0546881 0.000116 -2.61984 -0.25119 2.00644 2650 
1655 1 -0.0413469 -0.0421877 -0.0544209 0.000656 -1.15333 0.147394 0.876256 2650 
1503 1 -0.0427593 -0.00293712 -0.0540062 0.000116 -2.0779 -0.137084 1.64517 2650 
2211 1 -0.0432723 -0.0401068 -0.0529028 0.000656 -1.85894 -0.0031643 1.52054 2650 
2546 1 -0.043601 -0.0282124 -0.052933 0.000423 -2.00457 -0.208062 1.65117 2650 
4250 1 -0.0448285 -0.0445431 -0.0523013 0.000116 2.31593 -0.707985 -1.98503 2650 
367 1 -0.0440333 -0.0246282 -0.052574 0.000423 -1.67686 -0.399262 1.40445 2650 
1598 1 -0.045917 -0.00690649 -0.0513484 0.000116 -0.898212 -0.114998 0.803202 2650 
2060 1 -0.0438768 -0.00016862 -0.0516056 0.000116 0.130569 -0.0140507 0.359284 2650 
844 1 -0.0461677 -0.037262 -0.051123 0.000116 1.41137 0.933187 -1.27457 2650 
4138 1 -0.0462564 -0.00661054 -0.0510428 0.000116 -2.668 0.130352 2.41782 2650 
2679 1 -0.0470982 -0.0288941 -0.0498469 0.000423 -2.3711 -0.121206 2.24035 2650 
1020 1 -0.0466815 -0.00916726 -0.0502373 0.000423 -1.40952 0.477913 1.30976 2650 
3647 1 -0.046689 -0.00560522 -0.0502304 0.000423 -2.39938 -0.100377 2.23022 2650 
3444 1 -0.046554 -0.00121625 -0.0503556 0.000423 -2.10053 -0.113112 1.94195 2650 
2066 1 -0.0489064 -0.0128071 -0.0485097 0.000116 -1.78642 -0.157984 1.80103 2650 
91 1 -0.0500159 -0.033217 -0.0473649 0.000116 -2.42984 -0.222563 2.56584 2650 
319 1 -0.0349974 -0.0186696 -0.0479692 0.000116 8.29386 1.30512 -0.682353 2650 
14 1 -0.0515544 -0.0295427 -0.0452227 0.000423 -1.60332 0.0637785 1.8278 2650 
2103 1 -0.0513006 -0.0226816 -0.0455104 0.000423 -1.60686 -0.12405 1.8113 2650 
1356 1 -0.0521637 -0.0252635 -0.0445185 0.000423 -1.63987 -0.485472 1.92148 2650 
2465 1 -0.0529681 -0.0388914 -0.0435583 0.000423 -0.0198161 0.575137 0.0240968 2650 
1210 1 -0.0534402 -0.0125493 -0.0435815 4.2e-05 -2.02175 -0.187514 2.4791 2650 
51 1 -0.0535103 -0.0397719 -0.0428905 0.000423 0.179583 0.131616 -0.224049 2650 
1202 1 -0.0551699 -0.0218609 -0.0413701 4.2e-05 -1.08594 -0.0316016 1.44817 2650 
3066 1 -0.0555297 -0.0121459 -0.040886 4.2e-05 -1.76004 0.427327 2.39042 2650 
4025 1 -0.0564375 -0.0145567 -0.0394947 0.000116 -1.80248 0.156638 2.57572 2650 
3196 1 -0.0563006 -0.0119798 -0.0391561 0.000423 -1.81079 -0.347332 2.60365 2650 
1591 1 -0.056569 -0.0417931 -0.038659 0.000423 -0.963806 0.336251 1.10306 2650 
2560 1 -0.0571156 -0.0346762 -0.0379573 0.000423 -1.48095 0.259836 2.22843 2650 
2162 1 -0.0571116 -0.0212583 -0.0385135 0.000116 1.4754 -2.90539 -2.18786 2650 
1364 1 -0.00151779 -0.00629893 -0.0381668 0.000423 -0.252282 -0.323825 -5.39796 2650 
208 1 -0.058995 -0.0335102 -0.0355614 0.000116 -0.40772 1.31808 0.676393 2650 
4106 1 -0.0585805 -0.00216082 -0.035655 0.000423 -1.53248 0.431858 2.51784 2650 
355 1 -0.059098 -0.0223451 -0.0347906 0.000423 -1.40482 0.252284 2.38633 2650 
3040 1 -0.0601217 -0.00560234 -0.0336214 0.000116 -0.638789 0.0418403 1.14228 2650 
2051 1 -0.0603205 -0.00529388 -0.0332634 0.000116 -0.719635 0.757228 1.305 2650 
1169 1 -0.0303016 -0.00397564 -0.0339467 0.000116 -4.60566 -0.0916074 -5.15969 2650 
3522 1 -0.0601648 -0.0334435 -0.0329111 0.000423 -0.795004 -0.353189 1.45335 2650 
420 1 -0.0607687 -0.0161084 -0.0324374 0.000116 -1.50338 -0.214976 2.81645 2650 
2337 1 -0.0601253 -0.000957248 -0.0329834 0.000423 -1.53371 0.0939751 2.79578 2650 
4021 1 -0.0609584 -0.000366788 -0.0320795 0.000116 -1.52862 0.250982 2.90472 2650 
3227 1 -0.0618196 -0.0377341 -0.0296865 0.000423 -1.26042 -0.253657 2.62471 2650 
821 1 -0.0619298 -0.0284358 -0.0294559 0.000423 -1.23303 0.374467 2.59239 2650 
3204 1 -0.0619194 -0.0250919 -0.0294778 0.000423 -1.13396 0.110298 2.38193 2650 
2052 1 -0.0622511 -0.0113492 -0.0294928 0.000116 -1.37356 -0.204928 2.89919 2650 
400 1 -0.0622222 -0.0105872 -0.0295537 0.000116 -1.3789 -0.175076 2.90313 2650 
3422 1 -0.0622623 -0.027965 -0.0287465 0.000423 -0.916586 -0.147286 1.98524 2650 
3875 1 -0.0620935 -0.0266758 -0.0291092 0.000423 -1.0132 0.354182 2.16127 2650 
3385 1 -0.0623826 -0.0152527 -0.0292135 0.000116 0.664968 -0.51661 -1.41997 2650 
3502 1 -0.0629292 -0.00675247 -0.0281979 4.2e-05 -1.30877 -0.154226 2.92078 2650 
3328 1 -0.0629012 -0.0222401 -0.0273201 0.000423 -1.11136 0.204894 2.55876 2650 
152 1 -0.0628243 -0.0193393 -0.0274964 0.000423 -0.983487 0.047327 2.24709 2650 
2875 1 -0.0628818 -0.0133127 -0.0273648 0.000423 -1.27553 -0.327603 2.93105 2650 
2151 1 -0.0637774 -0.00870276 -0.0260282 0.000116 -1.18345 -0.111544 2.89981 2650 
427 1 -0.0637251 -0.000693359 -0.0261559 0.000116 -0.0528195 -0.0841158 0.128687 2650 
2386 1 -0.0643516 -0.0231452 -0.0245742 0.000116 0.708249 -0.333953 -1.85467 2650 
1002 1 -0.0649023 -0.0371308 -0.0214221 0.000656 -0.941822 -0.0615253 2.85342 2650 
3974 1 -0.0653741 -0.0418043 -0.0205285 0.000423 0.523157 0.182095 -0.151992 2650 
1886 1 -0.0656255 -0.00780464 -0.019906 0.000423 -0.929641 -0.208912 3.06481 2650 
2201 1 -0.0654385 -0.0406747 -0.0196029 0.000656 0.0832757 0.462272 -0.0737157 2650 
2862 1 -0.0658499 -0.0244098 -0.0183029 0.000656 -0.759053 0.257394 2.73092 2650 
4320 1 -0.0663183 -0.0320105 -0.0174597 0.000423 -0.598801 0.143307 2.27447 2650 
1363 1 -0.0664332 -0.0210286 -0.0166378 0.000423 -0.209872 -0.0718403 0.00582209 2650 
606 1 -0.000183 0.00313935 -0.016592 0.000116 0 -0.011753 0 2650 
3589 1 -0.000801054 0.00567372 -0.0167084 0.000116 0.154771 0.0635836 -0.00686375 2650 
188 1 -0.000722261 0.00968991 -0.0167908 0.000116 -0.0156058 0.0716121 0.00169132 2650 
2713 1 -0.000763 0.0101103 -0.016767 0.000116 0 -0.011753 0 2650 
736 1 -0.00354539 0.00104511 -0.0164726 0.000116 -0.0354095 -0.0179405 0.00483888 2650 
150 1 -0.00322001 0.001369 -0.0161385 0.000423 -0.0635667 0.0441481 0.00872881 2650 
2793 1 -0.0020049 0.00142628 -0.0161617 0.000423 -0.000947019 0.106571 0.0232058 2650 
1679 1 -0.00363843 0.00259684 -0.0160305 0.000423 -0.000267589 -0.00703629 -0.00433961 2650 
2013 1 -0.0027337 0.002815 -0.0161223 0.000423 -6.21088e-05 -0.00297451 0.00266081 2650 
2301 1 -0.004222 0.00491235 -0.016305 4.2e-05 0 -0.011753 0 2650 
3121 1 -0.00315495 0.00507064 -0.0162028 0.000423 0.0292552 0.00121421 5.81941e-05 2650 
1388 1 -0.0010102 0.00521409 -0.0159235 0.000116 -0.039288 0.0021603 0.0169103 2650 
302 1 -0.000282343 0.00652455 -0.0162468 0.000116 0.0171051 0.0203877 0.0103663 2650 
3934 1 -0.001977 0.00790135 -0.016218 0.000116 0 -0.011753 0 2650 
1617 1 -0.00348704 0.0097631 -0.0164832 0.000116 0.0304013 0.00375314 0.0183235 2650 
2924 1 -0.000151123 0.011152 -0.0163214 0.000116 -0.059039 0.0353164 0.00422158 2650 
3573 1 -0.00364625 0.0306432 -0.0164656 0.000116 0.222562 -0.254179 0.0393607 2650 
1173 1 -0.000284808 0.0340839 -0.0158673 0.000116 -0.136556 0.342033 -0.0293067 2650 
456 1 -0.00377859 0.0388678 -0.0159568 0.000423 -0.713021 -0.0435711 0.131566 2650 
4245 1 -0.00271847 0.0413807 -0.0163561 0.000116 -0.131082 0.152483 0.00432583 2650 
1357 1 -0.00261912 0.0509798 -0.0162397 0.000423 0.0681058 0.285169 -0.0155587 2650 
2835 1 -0.0670691 -0.0264838 -0.0157084 0.000116 -0.393154 -0.153223 1.67863 2650 
633 1 -0.0671084 -0.0166149 -0.0155399 0.000116 -0.72889 -0.127067 3.14767 2650 
623 1 -0.00676543 0.00049532 -0.0151927 0.000116 0.0135085 -0.00577665 0.0160157 2650 
1991 1 -0.00524696 0.000520029 -0.015223 0.000656 -0.0197706 -0.00214867 0.00868857 2650 
3637 1 -0.00380039 0.00225262 -0.015217 0.000423 -0.00927208 0.0142333 -0.0137243 2650 
3239 1 -0.00339381 0.0017649 -0.0157295 0.000116 -0.0332144 0.00168872 0.00188105 2650 
676 1 -0.00262929 0.00189643 -0.0156858 0.000423 -0.0153526 -0.000110762 0.0217663 2650 
3043 1 -0.00159284 0.00246177 -0.0156828 0.000116 0.127084 0.0078871 0.090283 2650 
2399 1 -0.002418 0.00335335 -0.015541 0.000116 0 -0.011753 0 2650 
2283 1 -0.00221463 0.00383836 -0.0156132 0.000116 -0.0318858 -0.01081 -0.0228231 2650 
2313 1 -0.0048488 0.00572292 -0.0151389 0.000656 0.00856952 0.0288131 0.00982472 2650 
2438 1 -0.00562895 0.00666899 -0.0153594 0.000423 0.0095107 -0.00232096 0.00866566 2650 
978 1 -0.0049305 0.00682756 -0.0157241 0.000116 0.015313 -0.00383775 -0.0151954 2650 
963 1 -0.00573138 0.00726573 -0.0151908 0.000116 -0.029376 -0.065298 -0.0412241 2650 
1219 1 -0.00063265 0.00710681 -0.0157273 0.000656 0.0133734 0.0239605 0.00857101 2650 
1620 1 -0.00304295 0.00814111 -0.0156765 0.000116 0.0529387 0.0514306 -0.00503745 2650 
2969 1 -0.00143484 0.00819641 -0.0150911 0.000656 -0.00781599 0.0183331 -4.51083e-05 2650 
1483 1 -0.000319982 0.00853994 -0.0153195 0.000423 -0.0010087 0.0213686 -0.00667363 2650 
3830 1 -0.006879 0.00945335 -0.015411 4.2e-05 0 -0.011753 0 2650 
86 1 -0.002064 0.00915735 -0.015055 0.000116 0 -0.011753 0 2650 
3177 1 -0.001068 0.00895735 -0.015412 4.2e-05 0 -0.011753 0 2650 
1228 1 -0.00143835 0.00928218 -0.0150119 0.000423 -0.0026547 0.0243513 0.000515369 2650 
371 1 -0.000457186 0.00997462 -0.0152777 0.000423 0.000724313 -0.00601752 -0.0061741 2650 
938 1 -0.000869 0.0103633 -0.015416 0.000116 0 -0.011753 0 2650 
568 1 -0.00258926 0.0167471 -0.0152447 0.000423 0.0646767 0.0324089 0.0265592 2650 
142 1 -0.00436879 0.0233968 -0.0152109 0.000423 -0.0600809 0.0373384 0.0570253 2650 
913 1 -0.00103917 0.0245906 -0.0150097 0.000423 -0.0131935 0.0940792 0.0439723 2650 
2827 1 -0.00510345 -0.00121272 -0.0142515 0.000116 -0.0201753 -0.0226203 0.0017234 2650 
545 1 -0.00233116 -0.00156629 -0.0148977 4.2e-05 -0.000252069 0.0758595 -0.196498 2650 
2817 1 -0.00179858 -0.0014107 -0.0144104 0.000116 0.0100645 -0.056664 0.00630574 2650 
1053 1 -0.007469 -0.000488653 -0.014946 0.000116 0 -0.011753 0 2650 
509 1 -0.00736658 -0.000361512 -0.0142132 0.000116 -0.00521486 0.00944493 -0.0325939 2650 
2332 1 -0.00431784 0.000133782 -0.0142573 0.000423 -0.0114447 -0.00779769 0.00753018 2650 
222 1 -0.0022134 5.07603e-05 -0.0147228 0.000656 -0.0189906 -0.0240038 0.0410277 2650 
2922 1 -0.00658948 0.00152447 -0.0146466 0.000116 -0.0108987 -0.0113206 0.0393947 2650 
220 1 -0.00362927 0.00260016 -0.0148298 4.2e-05 0.00197382 0.00663681 0.00671825 2650 
1171 1 -0.00868671 0.0041866 -0.0143193 0.000116 0.0131753 -0.0110464 0.0150896 2650 
3365 1 -0.002315 0.00577935 -0.014552 0.000116 0 -0.011753 0 2650 
3950 1 -0.00713861 0.00646654 -0.0144919 0.000656 0.000269197 -0.0034931 0.0278554 2650 
1618 1 -0.00841779 0.00769733 -0.014343 0.000116 -0.0222988 0.059375 0.0201275 2650 
581 1 -0.00560483 0.00866404 -0.0143439 0.000423 -0.000593495 -0.0101803 -0.00423903 2650 
1827 1 -0.00661822 0.00945492 -0.0142668 0.000116 -0.0386186 0.00754243 -0.0442276 2650 
233 1 -0.0047784 0.00979264 -0.014616 0.000423 0.000342891 -0.00976437 -0.0328705 2650 
3669 1 -0.000257247 0.010654 -0.0146591 0.000423 0.00220454 -0.00743356 -0.00383523 2650 
3644 1 -0.000931821 0.0124045 -0.0148894 0.000423 -0.00432743 0.00711996 -0.0325914 2650 
478 1 -0.00749656 0.0149922 -0.0142987 0.000423 -0.0255767 0.012458 -0.051203 2650 
1072 1 -0.0290216 -0.00445085 -0.0142406 0.000116 -4.52246 -0.119152 -2.21913 2650 
1468 1 -0.00455026 -0.00244067 -0.0137412 0.000423 -0.0197001 -0.0470204 -0.0326717 2650 
1022 1 -0.00285907 -0.00208647 -0.0141373 0.000423 -0.0361806 0.0454744 -0.169588 2650 
3733 1 -0.00652185 0.00114288 -0.0137304 0.000656 -0.0232119 0.0173762 0.0152854 2650 
1032 1 -0.00786138 0.00389821 -0.0138657 0.000423 -0.0173367 -0.00904293 -0.0556269 2650 
3587 1 -0.00606993 0.00390833 -0.0141068 0.000116 -0.0152422 -0.0151231 -0.00566973 2650 
234 1 -0.00100419 0.00377154 -0.0135765 0.000423 0.0351287 -0.0167305 0.0264562 2650 
2512 1 -0.00950874 0.00432641 -0.0136681 0.000116 0.018779 -0.0192413 0.00230208 2650 
4165 1 -0.00517222 0.00404695 -0.0137324 0.000656 -6.3943e-05 -0.032131 0.00827285 2650 
2918 1 -0.00787841 0.00495442 -0.0138348 0.000116 -0.0132236 0.0205789 -0.0380223 2650 
1288 1 -0.002467 0.00708235 -0.014044 0.000116 0 -0.011753 0 2650 
4227 1 -0.000360954 0.00696468 -0.0138793 0.000116 -0.00921828 -0.0161692 0.0154311 2650 
2322 1 -0.00832012 0.00722495 -0.0135965 0.000656 -0.0108707 -0.010103 0.00337555 2650 
3515 1 -0.00717419 0.00776111 -0.0141247 0.000656 -0.0103794 -0.0121819 0.00307219 2650 
508 1 -0.00962289 0.0083197 -0.0134715 0.000116 -0.0609474 0.0130298 0.0475554 2650 
4190 1 -0.00834517 0.00856599 -0.0141905 0.000423 -0.009489 7.8582e-05 0.00632979 2650 
2222 1 -0.000444455 0.00801591 -0.01417 0.000423 -0.00549102 -0.00568171 -0.00117535 2650 
4257 1 -0.00822417 0.00995929 -0.0140702 0.000116 0.0101268 -0.0416798 0.0036163 2650 
1476 1 -0.006941 0.00988235 -0.013435 0.000423 0 -0.011753 0 2650 
1986 1 -0.00291897 0.00982668 -0.0137869 0.000656 0.00762539 0.0149956 0.0116892 2650 
1409 1 -0.00044 0.0108623 -0.013868 0.000116 0 -0.011753 0 2650 
3007 1 -0.00131627 0.0113999 -0.0139634 0.000423 -0.0135196 -0.00505473 -0.0280609 2650 
3216 1 -0.0046163 0.0262046 -0.0135555 0.000423 -0.00544148 0.107266 0.0543995 2650 
3153 1 -0.00153438 -0.00277462 -0.013302 0.000116 0.0575311 -0.0297429 -0.0490481 2650 
2172 1 -0.00788235 -0.00164069 -0.013056 0.000116 0.0554355 0.00150652 -0.0523356 2650 
3551 1 -0.00649913 0.000268564 -0.0130379 0.000423 -0.015336 0.00523015 0.00637389 2650 
541 1 -0.00640483 0.000772005 -0.0126341 4.2e-05 -0.0143735 0.00954058 0.00936495 2650 
4126 1 -0.00481621 0.000147571 -0.0132566 0.000116 -0.0261531 0.0084042 0.00402279 2650 
2525 1 -0.004063 0.00130935 -0.013231 4.2e-05 0 -0.011753 0 2650 
2619 1 -0.005851 0.00212535 -0.012854 0.000116 0 -0.011753 0 2650 
3880 1 -0.010277 0.00304135 -0.012913 0.000423 0 -0.011753 0 2650 
2609 1 -0.00886 0.00284935 -0.013248 0.000116 0 -0.011753 0 2650 
3917 1 -0.003984 0.00361035 -0.012703 0.000116 0 -0.011753 0 2650 
2059 1 -0.003583 0.00381935 -0.012756 0.000116 0 -0.011753 0 2650 
3322 1 -0.00347651 0.00460092 -0.0128381 0.000423 0.00110678 0.0140263 0.0123959 2650 
2596 1 -0.00963411 0.00491518 -0.0126809 0.000116 -0.0442582 -0.0431064 0.0384975 2650 
2912 1 -0.00562258 0.00479637 -0.013242 0.000116 0.00196064 0.0151142 0.00117299 2650 
4078 1 -0.00918755 0.00621501 -0.012703 0.000423 -0.0196946 -0.00953845 0.00130892 2650 
450 1 -0.00636837 0.00565617 -0.013186 0.000656 0.0112424 0.0469319 0.00733295 2650 
104 1 -0.00300299 0.00593315 -0.0131329 4.2e-05 -0.00674979 0.0150481 0.0116551 2650 
1427 1 -0.002948 0.00615035 -0.013376 4.2e-05 0 -0.011753 0 2650 
3446 1 -0.00243319 0.0057107 -0.0126617 0.000423 0.014297 -0.016402 -0.00312272 2650 
2913 1 -0.00777789 0.0067462 -0.0132919 0.000116 -0.028239 -0.0119827 -0.0130286 2650 
4296 1 -0.00373269 0.00670865 -0.0132244 0.000423 -0.0431702 0.0421068 0.0473826 2650 
1237 1 -0.0100057 0.00789366 -0.0131535 0.000423 0.0147702 0.0203613 -0.00922036 2650 
3259 1 -0.00877291 0.00752425 -0.0129898 0.000116 -0.0089878 -0.00810535 0.00538998 2650 
1584 1 -0.00152262 0.00768192 -0.0128215 0.000423 -0.00963006 0.0395817 0.04039 2650 
1795 1 -0.00872877 0.0081464 -0.0129857 0.000423 0.00165908 -0.0118589 -0.000959055 2650 
1250 1 -0.00793095 0.0086554 -0.0131422 0.000423 -0.0109693 -0.0170514 -0.0143142 2650 
1769 1 -0.00649599 0.00863971 -0.0133604 0.000656 -0.0148717 0.000652235 -0.0101128 2650 
2483 1 -0.00904996 0.00923696 -0.0129901 0.000116 0.00258646 -0.0218162 0.0129531 2650 
205 1 -0.000744 0.00886635 -0.01334 0.000116 0 -0.011753 0 2650 
289 1 -0.00158167 0.00974563 -0.013206 0.000116 -0.0188061 -0.000940224 -0.0594549 2650 
1775 1 -0.00822859 0.0116237 -0.0130464 0.000423 -7.29146e-05 -0.011186 -0.000346901 2650 
949 1 -0.00663896 0.0111936 -0.0127974 0.000116 -0.0176518 0.0277962 -0.00593252 2650 
3632 1 -0.0097223 0.0127964 -0.013378 0.000423 -0.0216519 0.000467483 0.0139725 2650 
959 1 -0.0081162 0.0131932 -0.0133217 0.000116 -0.0723779 0.0623805 -0.0339909 2650 
2467 1 -0.00112845 0.0309598 -0.0134132 0.000423 0.0301791 0.103437 0.0421276 2650 
3349 1 -0.0678136 -0.00581841 -0.0120968 0.000116 -0.561138 -0.134082 3.14568 2650 
330 1 -0.0082387 -0.00313955 -0.0122897 4.2e-05 -0.0696064 -0.0147686 0.0345761 2650 
4097 1 -0.00888603 -0.00222082 -0.0122787 0.000423 -0.0116536 0.00229875 0.0371095 2650 
2468 1 -0.00374253 -0.00191725 -0.0121288 0.000423 -0.0504222 0.0211365 0.000191011 2650 
1763 1 -0.001143 -0.00200465 -0.012442 0.000656 0 -0.011753 0 2650 
3191 1 -0.0073053 -0.000284003 -0.0125526 0.000656 -0.0197381 0.00193499 -0.0014393 2650 
1422 1 -0.003881 -0.000158653 -0.012349 4.2e-05 0 -0.011753 0 2650 
1799 1 -0.00323003 0.000648719 -0.0120565 0.000423 7.10678e-05 -0.0118308 4.63239e-05 2650 
3956 1 -0.00904437 0.00153995 -0.0123113 0.000656 -0.000640959 -0.0104529 -0.000368355 2650 
3201 1 -0.00632962 0.00154645 -0.012277 0.000423 -0.00608722 0.0216696 0.0089772 2650 
3389 1 -0.010415 0.00210735 -0.012026 0.000116 0 -0.011753 0 2650 
3645 1 -0.00604436 0.00329155 -0.0124503 0.000423 -0.0357151 -0.0039173 0.0164321 2650 
1192 1 -0.00521618 0.00372396 -0.0120922 0.000116 -0.0160738 0.0171838 -0.0228619 2650 
411 1 -0.0105242 0.0044894 -0.012091 0.000116 -0.00787832 -0.00657823 -8.20909e-05 2650 
3826 1 -0.009208 0.00400235 -0.012552 0.000116 0 -0.011753 0 2650 
708 1 -0.0027936 0.00445179 -0.0123462 0.000423 0.0112279 -0.00894022 0.00239788 2650 
3380 1 -0.0022429 0.00431548 -0.0119978 0.000116 -0.00133046 -0.0120531 0.0302183 2650 
2194 1 -0.00224616 0.00466503 -0.0124526 4.2e-05 0.00491046 0.00111596 0.00228026 2650 
2957 1 -0.00148805 0.00458337 -0.0122627 4.2e-05 0.0205169 0.0248349 -0.000218849 2650 
3316 1 -0.008979 0.00475535 -0.012376 0.000423 0 -0.011753 0 2650 
1261 1 -0.0074503 0.00492657 -0.0124479 0.000423 -0.000148786 -0.00207045 -0.0014312 2650 
3362 1 -0.0026602 0.00507855 -0.0123351 0.000116 0.000350619 -0.00253681 -0.00404217 2650 
3030 1 -0.001189 0.00626535 -0.012596 0.000116 0 -0.011753 0 2650 
2219 1 -0.00287962 0.00678002 -0.0122424 0.000423 0.0430827 0.0512131 0.0198144 2650 
445 1 -0.00964494 0.00729091 -0.0122841 0.000656 -0.00157651 -0.00352117 -0.00927671 2650 
4318 1 -0.00860569 0.00760761 -0.0123041 0.000423 0.000634828 -0.00541564 0.00164809 2650 
1495 1 -0.004483 0.00773335 -0.012591 0.000116 0 -0.011753 0 2650 
3684 1 -0.00426633 0.00783098 -0.0125576 0.000116 0.00413104 -0.0230128 -0.00941473 2650 
2344 1 -0.000919695 0.00723843 -0.0122504 0.000423 0.00597873 -0.023338 -0.0226217 2650 
4179 1 -0.00722713 0.00864101 -0.0122564 0.000423 -0.00767678 -0.0221048 -0.00852388 2650 
3173 1 -0.004958 0.00839435 -0.012321 4.2e-05 0 -0.011753 0 2650 
1519 1 -0.00336569 0.00831019 -0.0118953 0.000116 -0.0494896 0.0341374 0.0501115 2650 
2630 1 -0.001036 0.00860235 -0.012074 4.2e-05 0 -0.011753 0 2650 
4002 1 -0.000443 0.00842635 -0.01223 0.000116 0 -0.011753 0 2650 
3847 1 -0.00962667 0.00877502 -0.0125097 0.000656 0.00191913 0.0130802 -0.00623859 2650 
2453 1 -0.00624218 0.00872547 -0.0122847 0.000423 0.00783944 0.0181262 -0.00771338 2650 
1423 1 -0.00145 0.0100823 -0.012526 4.2e-05 0 -0.011753 0 2650 