ITEM: TIMESTEP
5377404
ITEM: NUMBER OF ATOMS
4356
ITEM: BOX BOUNDS ff ff ff
-0.15 0.15
-0.15 0.06
-0.15 0.15
ITEM: ATOMS id type x y z radius vx vy vz density 
4037 1 -0.000195266 -0.061902 -0.0681544 0.000116 11.5097 0.463014 -3.71529 2650 
4150 1 -0.0568663 -0.0576344 -0.0388747 0.000116 0.759037 0.82438 -1.11033 2650 
3308 1 -0.00534466 -0.0581643 -0.0683695 0.000423 -2.55831 -0.303227 0.199991 2650 
4139 1 -0.0171309 -0.0580068 -0.06672 0.000116 -1.18288 0.27029 0.303712 2650 
1563 1 -0.0157441 -0.0572599 -0.0667464 0.000423 -3.29735 0.398982 0.777777 2650 
2855 1 -0.0195514 -0.0584127 -0.0661283 4.2e-05 -1.36765 0.217827 0.404358 2650 
1520 1 -0.0308916 -0.0529435 -0.0615689 0.000116 6.1242 -0.311252 -3.07276 2650 
1591 1 -0.0352786 -0.0470045 -0.0588079 0.000423 -1.5243 0.270241 0.914418 2650 
1417 1 -0.0368981 -0.0539475 -0.0581683 0.000116 -1.8616 -0.111051 1.18087 2650 
208 1 -0.0351332 -0.0552526 -0.0552783 0.000116 -1.55507 -5.94516 2.76267 2650 
4016 1 -0.0413482 -0.056628 -0.055094 0.000116 5.1433 2.63821 -3.86006 2650 
1961 1 -0.0414256 -0.0557521 -0.0550358 0.000116 1.60164 0.38547 -1.20556 2650 
51 1 -0.0624971 -0.0462875 -0.0282322 0.000423 0.38741 0.419176 -0.857601 2650 
3425 1 -0.0634884 -0.0616882 -0.0258799 0.000423 -1.02078 -0.00983814 1.50595 2650 
1996 1 -0.0639225 -0.0452472 -0.0248369 0.000423 -0.945749 0.36115 2.43406 2650 
1051 1 -0.0638133 -0.062684 -0.0223913 0.000116 0.716607 -0.00146486 -0.583944 2650 
4316 1 -0.0655419 -0.0620052 -0.0201791 0.000423 -0.553183 0.138114 1.79801 2650 
2201 1 -0.065956 -0.0510367 -0.0179167 0.000656 0.0578777 0.690147 -0.213062 2650 
19 1 -0.0674325 -0.0622959 -0.0124821 0.000423 -0.000438067 0.00914991 0.00236665 2650 
3692 1 -0.0686315 -0.0539355 -0.00589346 0.000116 0.0463271 0.252206 -0.539497 2650 
2162 1 -0.0680356 -0.0618101 0.0105118 0.000116 -3.15799 0.131055 -12.4272 2650 
2274 1 -0.0680422 -0.0603747 0.0104772 0.000116 -0.846071 0.45725 -6.74194 2650 
747 1 -0.0639148 -0.062684 0.0121126 0.000116 0.710305 -1.67213e-10 -13.7779 2650 
2083 1 -0.0673421 -0.0540551 0.0148409 4.2e-05 0.146588 0.11205 0.665159 2650 
2790 1 -0.0669929 -0.0494802 0.0146595 0.000423 0.518237 -0.211968 2.36831 2650 
649 1 -0.0668777 -0.0603865 0.0165046 0.000116 -0.447965 -2.66179 -1.81518 2650 
2557 1 -0.0653126 -0.0462121 0.0209096 0.000423 0.498828 0.0728181 1.55813 2650 
1314 1 -0.062376 -0.0580847 0.0294014 4.2e-05 -2.5124 -0.897286 -5.33012 2650 
3331 1 -0.0563669 -0.054552 0.0390605 0.000423 1.63426 0.117936 2.35835 2650 
1239 1 -0.0475903 -0.056584 0.0493772 0.000423 1.08193 -0.174634 1.04278 2650 
2612 1 -0.0441063 -0.0595174 0.0529118 0.000116 -1.56845 0.609779 -1.30743 2650 
2954 1 -0.0402196 -0.0459226 0.0559232 0.000116 -0.986981 -0.814163 -0.709829 2650 
1270 1 -0.0386772 -0.0609698 0.0570008 0.000116 -1.17113 -0.408969 -0.794658 2650 
2667 1 -0.03554 -0.0597638 0.0586503 0.000423 1.96094 -0.939234 1.18826 2650 
3957 1 -0.0350091 -0.0526124 0.058699 0.000656 1.84435 0.390411 1.1 2650 
343 1 -0.0339547 -0.0499482 0.0595821 0.000423 2.23005 0.253888 1.27086 2650 
689 1 -0.0317526 -0.0623765 0.0607844 0.000423 1.60576 0.0537398 0.833644 2650 
3531 1 -0.0305312 -0.0505209 0.0614068 0.000423 1.85351 -0.50231 0.921557 2650 
575 1 -0.0275618 -0.0469822 0.0627957 0.000423 1.07461 -1.03817 0.471658 2650 
3069 1 -0.0284062 -0.0460475 0.0628355 4.2e-05 2.31732 -1.10928 1.0476 2650 
3785 1 -0.018681 -0.0581993 0.0663027 0.000116 -3.35833 0.472374 -0.946218 2650 
2395 1 -0.0116423 -0.0466838 0.06601 0.000116 0.406692 -5.21593 0.345886 2650 
1463 1 -0.0173089 -0.0522389 0.0663578 0.000423 2.31939 -0.168293 0.604996 2650 
3840 1 -0.0102542 -0.0601735 0.0675726 0.000656 2.46975 -0.113644 0.374785 2650 
893 1 -0.00919754 -0.05248 0.0679585 0.000423 1.50484 -0.137303 0.203666 2650 
4133 1 -0.010345 -0.0468161 0.0681029 0.000116 -0.0286105 0.0836279 -0.00434602 2650 
4019 1 -0.00360848 -0.0454757 0.0687895 0.000116 2.35816 0.0942873 0.123701 2650 
753 1 -0.00091583 -0.0365028 -0.068878 0.000116 -1.96433 2.0259 0.0261185 2650 
91 1 -0.00265731 -0.0272246 -0.0688328 0.000116 1.23424 -1.68112 -0.0476475 2650 
1503 1 -0.00292934 -0.0128277 -0.0688218 0.000116 -3.19551 -0.433845 0.136014 2650 
2211 1 -0.00652513 -0.0390539 -0.068034 0.000656 -2.39063 -0.12121 0.229285 2650 
1912 1 -0.00457346 -0.0385056 -0.0684254 0.000423 -2.37099 -0.0705192 0.158474 2650 
3527 1 -0.00216109 -0.0263862 -0.068544 0.000423 -2.37213 -0.0915804 0.0747898 2650 
2546 1 -0.00364617 -0.0240621 -0.0684811 0.000423 -2.59337 -0.281542 0.13808 2650 
935 1 -0.0094048 -0.0208458 -0.0679093 0.000423 -2.10618 -1.19396 -0.0799361 2650 
835 1 -0.00382163 -0.0210249 -0.0686549 0.000116 -0.165925 0.18886 1.88678 2650 
367 1 -0.00902119 -0.0186495 -0.0679821 0.000423 -2.4791 -0.229439 0.328975 2650 
1170 1 -0.00907579 -0.0177815 -0.0682836 0.000116 -3.21327 -0.172894 0.427086 2650 
2000 1 -0.00634711 -0.0149907 -0.0682837 0.000423 0.118597 1.41817 -0.0110241 2650 
1325 1 -3.29375e-05 -0.0152402 -0.0683462 0.000656 -2.4054 0.265239 0.00115921 2650 
1207 1 -0.00618174 -0.0146925 -0.0686804 4.2e-05 -3.00684 -0.762836 0.270638 2650 
2066 1 -0.00819914 -0.013703 -0.0683944 0.000116 -2.82672 0.15042 0.338868 2650 
1210 1 -0.00741768 -0.00937965 -0.0685579 4.2e-05 -3.18041 -0.184578 0.344107 2650 
3444 1 -0.00300837 -0.00161673 -0.0685121 0.000423 -2.87894 0.247088 0.126415 2650 
4025 1 -0.0129402 -0.0169707 -0.0676578 0.000116 -3.14507 0.132245 0.601525 2650 
14 1 -0.0173293 -0.0299811 -0.0663524 0.000423 -2.35244 -0.0120061 0.614388 2650 
1587 1 -0.0160955 -0.0255571 -0.0666624 0.000423 -0.516607 -0.687862 0.124734 2650 
2103 1 -0.0142717 -0.0215313 -0.0670766 0.000423 -2.65048 -0.0417131 0.563933 2650 
1712 1 -0.0119184 -0.0210604 -0.0670877 0.000116 13.3524 -0.257531 -2.58055 2650 
1356 1 -0.0162807 -0.0162396 -0.0666175 0.000423 -3.12813 -0.428664 0.764487 2650 
1020 1 -0.0197824 -0.0170024 -0.0656628 0.000423 -1.06908 0.292425 0.322085 2650 
420 1 -0.0205094 -0.0123073 -0.0657601 0.000116 -3.04779 -0.231251 0.950553 2650 
2337 1 -0.0188425 -0.0036934 -0.0659387 0.000423 -3.11787 0.22419 0.890954 2650 
1655 1 -0.0197985 -0.0440666 -0.0654157 0.000656 -1.38634 0.0757404 0.419586 2650 
2560 1 -0.0221683 -0.0382223 -0.0648962 0.000423 -2.532 0.158242 0.86492 2650 
3066 1 -0.022084 -0.0150419 -0.0653262 4.2e-05 -1.53859 -0.195191 0.520133 2650 
2060 1 -0.0220457 -0.0131702 -0.0652611 0.000116 0.405699 2.3915 -0.137048 2650 
4106 1 -0.020423 -0.00989002 -0.0654664 0.000423 -2.81381 0.47737 0.877799 2650 
2052 1 -0.023387 -0.00806169 -0.0647925 0.000116 -3.01756 -0.180959 1.0892 2650 
400 1 -0.0232313 -0.00777025 -0.0648485 0.000116 -3.02567 -0.155559 1.08391 2650 
355 1 -0.0242075 -0.0249372 -0.0641635 0.000423 -2.59087 0.0531028 0.977482 2650 
3502 1 -0.0249523 -0.00462254 -0.0642852 4.2e-05 -2.98372 -0.0958089 1.15813 2650 
4331 1 -0.0257408 -0.0440534 -0.0638939 0.000116 -2.12092 -2.03558 0.854449 2650 
632 1 -0.0104019 -0.0398957 -0.0636138 0.000116 5.68048 0.719447 0.318052 2650 
1943 1 -0.0262267 -0.0104136 -0.0636961 0.000116 5.40568 0.557625 -2.22578 2650 
821 1 -0.0284971 -0.0335511 -0.0623768 0.000423 -2.47961 0.231538 1.13282 2650 
3227 1 -0.0270946 -0.0321414 -0.0629987 0.000423 -2.79514 -0.407983 1.20214 2650 
2151 1 -0.028083 -0.00676159 -0.0628997 0.000116 -2.85991 -0.116466 1.27687 2650 
1598 1 -0.0290857 -0.0047003 -0.0624423 0.000116 -1.09227 -0.14726 0.508782 2650 
319 1 -0.0305445 -0.0187182 -0.0617418 0.000116 -2.8794 -0.174172 1.42448 2650 
2465 1 -0.0311311 -0.044089 -0.0611048 0.000423 -1.84134 0.232094 0.938109 2650 
3204 1 -0.0317043 -0.0263032 -0.0608094 0.000423 -2.33923 0.0325549 1.21961 2650 
3328 1 -0.0315491 -0.0253408 -0.0608901 0.000423 -2.47695 0.160337 1.28339 2650 
1202 1 -0.0322498 -0.0220222 -0.0609521 4.2e-05 -1.59995 0.0507225 0.846534 2650 
3024 1 -0.0154698 -0.0213903 -0.0613645 0.000116 11.7667 -0.178073 -7.26591 2650 
2875 1 -0.0245966 -0.00802055 -0.0615023 0.000423 -3.34369 -0.300594 -0.430031 2650 
1002 1 -0.0335927 -0.0343543 -0.0595209 0.000656 -2.61684 -0.264898 1.4769 2650 
3875 1 -0.0342127 -0.0312111 -0.0594344 0.000423 -2.17295 0.207902 1.25083 2650 
152 1 -0.0339376 -0.0225812 -0.0595919 0.000423 -2.5552 0.339932 1.45519 2650 
633 1 -0.0363403 -0.0140393 -0.0585184 0.000116 -2.74476 -0.175182 1.70452 2650 
2862 1 -0.0387416 -0.0279381 -0.0563054 0.000656 -2.34796 0.140095 1.61554 2650 
3040 1 -0.0395503 -0.00263777 -0.0563985 0.000116 -1.52818 -0.167591 1.07166 2650 
3422 1 -0.0405242 -0.0256283 -0.055324 0.000423 -1.65361 -0.159901 1.21125 2650 
3391 1 -0.0408071 -0.0190111 -0.0555877 4.2e-05 -2.57952 0.015855 1.89363 2650 
4017 1 -0.0403792 -0.00577319 -0.0558081 0.000116 0.120784 -0.251746 -0.0873916 2650 
3522 1 -0.0424664 -0.0275849 -0.0538475 0.000423 -1.24697 -0.26394 0.98341 2650 
3248 1 -0.0422951 -0.00863283 -0.0543704 0.000116 -2.53354 -0.192751 1.97086 2650 
1957 1 -0.0435971 -0.0184194 -0.0533321 0.000116 -2.56953 0.0865978 2.1005 2650 
1343 1 -0.0435713 -0.0143219 -0.0529575 0.000423 -2.38703 -0.204415 1.96395 2650 
844 1 -0.0452763 -0.0399215 -0.0519142 0.000116 -1.64672 -0.346075 1.43617 2650 
615 1 -0.0457948 -0.0156945 -0.0514573 0.000116 -2.55744 -0.334141 2.27602 2650 
4320 1 -0.0460963 -0.0335585 -0.0507748 0.000423 -1.74692 0.0393018 1.58595 2650 
1818 1 -0.0481812 -0.0171324 -0.04923 0.000116 -2.28923 0.138531 2.24046 2650 
3964 1 -0.048644 -0.0284793 -0.0483396 0.000423 -1.76428 0.0287871 1.77539 2650 
2605 1 -0.0492496 -0.0144239 -0.0481612 0.000116 -2.58893 0.069254 2.64744 2650 
838 1 -0.0490195 -0.00962839 -0.0483954 0.000116 -2.25784 -0.198489 2.28696 2650 
4021 1 -0.0499174 -0.000599446 -0.0474687 0.000116 -0.286795 -0.0415912 0.30159 2650 
4250 1 -0.0512635 -0.0319651 -0.0460117 0.000116 -0.285829 -0.689398 0.318453 2650 
2247 1 -0.0504896 -0.027638 -0.0464085 0.000423 -1.62866 0.127268 1.77188 2650 
2051 1 -0.0511036 -0.0215381 -0.0461892 0.000116 -0.634471 1.26388 0.701976 2650 
1647 1 -0.051202 -0.0195852 -0.0461906 4.2e-05 -1.97884 -0.628894 2.19353 2650 
1282 1 -0.05102 -0.0154127 -0.0462816 0.000116 -2.15245 -0.225182 2.37282 2650 
3718 1 -0.0517163 -0.025928 -0.045614 4.2e-05 3.01267 0.581238 -3.41571 2650 
1363 1 -0.0518164 -0.018078 -0.0449223 0.000423 -2.1058 -0.395922 2.42896 2650 
378 1 -0.0520577 -0.009079 -0.0446424 0.000423 -1.82314 0.0055482 2.12597 2650 
55 1 -0.0533033 -0.0252027 -0.0431476 0.000423 -1.44181 0.201049 1.78117 2650 
3330 1 -0.0531191 -0.0115919 -0.0433742 0.000423 -1.67426 0.455911 2.05042 2650 
3516 1 -0.0532567 -0.00275089 -0.0428362 0.000656 -1.78094 0.461552 2.21418 2650 
3974 1 -0.05401 -0.0367659 -0.0422596 0.000423 -1.3171 -0.579785 1.68332 2650 
2578 1 -0.0539911 -0.0268444 -0.0422837 0.000423 -1.56879 0.0729548 2.00316 2650 
1537 1 -0.0547402 -0.000998734 -0.0419371 4.2e-05 -2.40233 0.184312 3.13574 2650 
3734 1 -0.0546315 -0.0189182 -0.0410684 0.000656 -1.88711 -0.162891 2.51034 2650 
3960 1 -0.0546542 -0.0129033 -0.0414231 0.000423 -1.93428 -0.443357 2.55212 2650 
146 1 -0.0554447 -0.0195446 -0.0403589 0.000423 -1.85557 -0.192557 2.54916 2650 
2738 1 -0.0557217 -0.0136916 -0.0406239 4.2e-05 -1.90206 -0.253607 2.60895 2650 
312 1 -0.055776 -0.00193782 -0.0404236 0.000116 -1.69023 -0.0542013 2.33216 2650 
3619 1 -0.0488514 -0.000408153 -0.040372 4.2e-05 2.24436 -0.137585 -7.98497 2650 
482 1 -0.0575247 -0.0221205 -0.0373345 0.000423 -1.02537 0.435805 1.57989 2650 
1813 1 -0.057895 -0.0384246 -0.0367576 0.000423 -1.49973 -0.273509 2.36216 2650 
3831 1 -0.058712 -0.0166015 -0.0361677 4.2e-05 -3.44783 -1.59909 5.59695 2650 
4177 1 -0.058679 -0.0376727 -0.0354927 0.000423 -1.40711 -0.261522 2.32634 2650 
981 1 -0.0600953 -0.0309433 -0.0338195 4.2e-05 1.79047 -0.683109 -3.18155 2650 
2256 1 -0.0604744 -0.0448956 -0.0329829 0.000116 -0.33131 -0.10328 0.607458 2650 
2672 1 -0.0602681 -0.0135071 -0.0327217 0.000423 -1.52503 -0.229309 2.80887 2650 
2920 1 -0.0611982 -0.0316387 -0.0316197 0.000116 -1.43113 -0.382884 2.76988 2650 
3196 1 -0.0139244 -0.00631391 -0.0317745 0.000423 -1.88435 -0.33265 -4.41418 2650 
3945 1 -0.0611371 -0.000923793 -0.0318976 4.2e-05 3.19803 -0.0315119 -6.12957 2650 
1619 1 -0.0613236 -0.0128941 -0.0313758 0.000116 -0.987278 -0.457752 1.92962 2650 
3426 1 -0.0620193 -0.0361902 -0.0292671 0.000423 -1.26731 -0.666844 2.68553 2650 
1922 1 -0.062195 -0.0162345 -0.0288919 0.000423 -1.32007 -0.149564 2.84168 2650 
427 1 -0.0626071 -0.0110453 -0.0287294 0.000116 -0.303324 0.265102 0.661004 2650 
4303 1 -0.0627383 -0.0271298 -0.0276922 0.000423 -0.790988 -0.0685852 1.79203 2650 
2386 1 -0.0629335 -0.018638 -0.028007 0.000116 -1.26432 -0.257156 2.84101 2650 
3580 1 -0.0631752 -0.0191163 -0.0274575 0.000116 -1.31655 -0.600276 3.02916 2650 
843 1 -0.0635463 -0.0432377 -0.0265873 0.000116 -0.739676 0.837474 1.7679 2650 
1185 1 -0.054163 -0.0131102 -0.0268129 0.000116 -8.15936 -0.82795 -4.06555 2650 
1781 1 -0.0636895 -0.0429461 -0.0254282 0.000423 -0.0927363 0.779399 0.232274 2650 
3946 1 -0.0649511 -0.022083 -0.023164 4.2e-05 3.54764 2.1263 -9.94747 2650 
3337 1 -0.0648068 -0.00883684 -0.0224284 0.000423 -1.0495 -0.191201 3.03253 2650 
4360 1 -0.0652667 -0.036913 -0.022029 0.000116 -1.20276 -0.26643 3.56349 2650 
4373 1 -0.0655659 -0.00611484 -0.0213616 4.2e-05 -0.998638 -0.128835 3.06515 2650 
786 1 -0.0652284 -0.0114837 -0.0211709 0.000423 -0.98319 -0.22661 3.02924 2650 
3349 1 -0.0239284 -0.00394372 -0.0205159 0.000116 -3.51136 -0.0925984 -3.03626 2650 
2421 1 -0.0654902 -0.032371 -0.019551 0.000656 -0.835799 0.111614 2.79968 2650 
2112 1 -0.0660545 -0.0258182 -0.0184326 0.000423 -0.757939 -0.361544 2.71612 2650 
518 1 -0.066559 -0.00914166 -0.017746 0.000116 -0.830277 -0.237516 3.11408 2650 
822 1 -0.0664795 -0.0297105 -0.0168355 0.000423 -0.635447 -0.00330584 2.50924 2650 
1945 1 -0.0666955 -0.00926099 -0.0172259 0.000116 -0.758199 -0.138717 2.9356 2650 
980 1 -0.0443984 -0.00435817 -0.0170374 4.2e-05 -6.90302 -0.114302 -2.64896 2650 
606 1 -0.000183 0.00333668 -0.016592 0.000116 0 -0.011753 0 2650 
188 1 -0.000460241 0.00848754 -0.0168192 0.000116 -0.0156058 0.0716121 0.00169132 2650 
2713 1 -0.000763 0.0103077 -0.016767 0.000116 0 -0.011753 0 2650 
736 1 -0.003429 0.00126168 -0.016474 0.000116 0 -0.011753 0 2650 
150 1 -0.00261674 0.000965639 -0.0162241 0.000423 -0.00913371 0.00501626 0.00203877 2650 
676 1 -0.00238794 0.00192831 -0.0160191 0.000423 -0.0130706 -0.00428427 0.0172903 2650 
1679 1 -0.00363394 0.00271498 -0.0159577 0.000423 -0.000267589 -0.00703629 -0.00433961 2650 
2013 1 -0.00276369 0.00291705 -0.0161514 0.000423 0.00298908 -0.00809762 0.00112683 2650 
3589 1 -0.00340621 0.00459626 -0.0162937 0.000116 0.155503 0.064687 -0.0402711 2650 
2301 1 -0.004222 0.00510968 -0.016305 4.2e-05 0 -0.011753 0 2650 
3121 1 -0.00364994 0.0050479 -0.0160653 0.000423 0.0295457 0.00139416 -0.0105356 2650 
1388 1 -0.00035056 0.00517782 -0.0162074 0.000116 -0.039288 0.0021603 0.0169103 2650 
302 1 -0.000569536 0.00618224 -0.0164209 0.000116 0.0171051 0.0203877 0.0103663 2650 
1219 1 -0.00085719 0.00670451 -0.0158712 0.000656 0.0133734 0.0239605 0.00857101 2650 
3934 1 -0.001977 0.00809868 -0.016218 0.000116 0 -0.011753 0 2650 
142 1 -0.00336004 0.0227698 -0.0161683 0.000423 -0.0600809 0.0373384 0.0570253 2650 
4245 1 -0.000517621 0.0388205 -0.0164287 0.000116 -0.131082 0.152483 0.00432583 2650 
1357 1 -0.00376261 0.0461919 -0.0159785 0.000423 0.0681058 0.285169 -0.0155587 2650 
623 1 -0.00686159 0.000618054 -0.0150464 0.000116 -0.00477071 -0.00938024 -0.0420845 2650 
1991 1 -0.00491502 0.000556105 -0.0153689 0.000656 -0.0197706 -0.00214867 0.00868857 2650 
222 1 -0.00196172 0.000546156 -0.0150946 0.000656 -0.00713779 -0.040298 -0.0148088 2650 
2922 1 -0.00640649 0.00171454 -0.015308 0.000116 -0.0108987 -0.0113206 0.0393947 2650 
3239 1 -0.00283615 0.00173655 -0.0157611 0.000116 -0.0332144 0.00168872 0.00188105 2650 
2399 1 -0.002418 0.00355068 -0.015541 0.000116 0 -0.011753 0 2650 
2283 1 -0.00167927 0.00401986 -0.01523 0.000116 -0.0318858 -0.01081 -0.0228231 2650 
2313 1 -0.00499268 0.00523915 -0.0153038 0.000656 0.00856952 0.0288131 0.00982472 2650 
2438 1 -0.00573684 0.00671639 -0.0152692 0.000423 0.00192492 -0.00355692 -0.0258764 2650 
978 1 -0.00518761 0.00689199 -0.015469 0.000116 0.015313 -0.00383775 -0.0151954 2650 
1620 1 -0.00393179 0.00727759 -0.0155919 0.000116 0.0529387 0.0514306 -0.00503745 2650 
2969 1 -0.00129784 0.0077417 -0.0150949 0.000656 -0.00819712 0.0280435 0.000260256 2650 
1483 1 -0.000303046 0.00818117 -0.0152075 0.000423 -0.0010087 0.0213686 -0.00667363 2650 
86 1 -0.002064 0.00935468 -0.015055 0.000116 0 -0.011753 0 2650 
3177 1 -0.001068 0.00915468 -0.015412 4.2e-05 0 -0.011753 0 2650 
1228 1 -0.00141528 0.00942123 -0.0150033 0.000423 -0.00123313 -0.0118667 -0.000623591 2650 
3830 1 -0.006879 0.00965068 -0.015411 4.2e-05 0 -0.011753 0 2650 
1617 1 -0.00399888 0.0096031 -0.0156861 0.000116 0.0304875 0.00968505 -0.0492471 2650 
371 1 -0.000469347 0.0100757 -0.015174 0.000423 0.000724313 -0.00601752 -0.0061741 2650 
938 1 -0.000869 0.0105607 -0.015416 0.000116 0 -0.011753 0 2650 
568 1 -0.00367518 0.0162029 -0.0156906 0.000423 0.0646767 0.0324089 0.0265592 2650 
913 1 -0.000817657 0.023011 -0.015748 0.000423 -0.0131935 0.0940792 0.0439723 2650 
2599 1 -0.0672771 -0.0347001 -0.0147925 0.000116 -0.348243 -0.813895 1.58383 2650 
2827 1 -0.0047647 -0.000832931 -0.0142805 0.000116 -0.0201753 -0.0226203 0.0017234 2650 
2793 1 -0.00078777 -0.00143779 -0.0149341 0.000423 -0.196801 0.282111 -0.308846 2650 
1053 1 -0.007469 -0.000291321 -0.014946 0.000116 0 -0.011753 0 2650 
2817 1 -0.00196757 -0.000459311 -0.0145162 0.000116 0.0100645 -0.056664 0.00630574 2650 
2332 1 -0.00412568 0.000264704 -0.0143837 0.000423 -0.0114447 -0.00779769 0.00753018 2650 
3637 1 -0.00364473 0.00201352 -0.0149867 0.000423 -0.00927015 0.0142513 -0.0137177 2650 
220 1 -0.003649 0.00261368 -0.014897 4.2e-05 0 -0.011753 0 2650 
3365 1 -0.002315 0.00597668 -0.014552 0.000116 0 -0.011753 0 2650 
1618 1 -0.00804339 0.00670042 -0.0146809 0.000116 -0.0222988 0.059375 0.0201275 2650 
3950 1 -0.00674972 0.00663139 -0.0143633 0.000656 -0.0401516 -0.0144037 -0.0334096 2650 
4190 1 -0.00818585 0.00856467 -0.0142968 0.000423 -0.009489 7.8582e-05 0.00632979 2650 
508 1 -0.00859958 0.00810093 -0.01427 0.000116 -0.0609474 0.0130298 0.0475554 2650 
963 1 -0.00523815 0.00836208 -0.0144987 0.000116 -0.029376 -0.065298 -0.0412241 2650 
581 1 -0.00559487 0.00883497 -0.0142727 0.000423 -0.000593495 -0.0101803 -0.00423903 2650 
3669 1 -0.000294261 0.0107788 -0.0145947 0.000423 0.00220454 -0.00743356 -0.00383523 2650 
3644 1 -0.000859163 0.0122849 -0.0143422 0.000423 -0.00432743 0.00711996 -0.0325914 2650 
3216 1 -0.00452494 0.0244036 -0.0144689 0.000423 -0.00544148 0.107266 0.0543995 2650 
3043 1 -0.00100501 -0.00111427 -0.0141306 0.000116 -0.16517 0.282697 -0.415627 2650 
509 1 -0.00727902 -0.000520092 -0.0136659 0.000116 -0.00521486 0.00944493 -0.0325939 2650 
3733 1 -0.00613213 0.000851133 -0.013987 0.000656 -0.0232119 0.0173762 0.0152854 2650 
2512 1 -0.00971956 0.00462917 -0.0134909 0.000116 0.002514 -0.0160812 -0.0313025 2650 
1171 1 -0.0084601 0.00446636 -0.0136852 0.000116 -0.0146011 -0.0168948 -0.0399555 2650 
3587 1 -0.00581402 0.00416225 -0.0140116 0.000116 -0.0152422 -0.0151231 -0.00566973 2650 
4165 1 -0.00517016 0.0045861 -0.0138724 0.000656 -0.000243806 -0.0320728 0.00848336 2650 
234 1 -0.001594 0.00405244 -0.0140206 0.000423 0.0351287 -0.0167305 0.0264562 2650 
4296 1 -0.00300786 0.00600168 -0.0140199 0.000423 -0.0431702 0.0421068 0.0473826 2650 
1584 1 -0.00136093 0.00701734 -0.0134997 0.000423 -0.00963006 0.0395817 0.04039 2650 
2322 1 -0.0081376 0.00739458 -0.0136532 0.000656 -0.0108707 -0.010103 0.00337555 2650 
1288 1 -0.002467 0.00727968 -0.014044 0.000116 0 -0.011753 0 2650 
4227 1 -0.00020618 0.00723616 -0.0141384 0.000116 -0.00921828 -0.0161692 0.0154311 2650 
3515 1 -0.00699992 0.00796565 -0.0141763 0.000656 -0.0103794 -0.0121819 0.00307219 2650 
2222 1 -0.000352261 0.0081113 -0.0141502 0.000423 -0.00549102 -0.00568171 -0.00117535 2650 
1827 1 -0.00596982 0.00932828 -0.0135242 0.000116 -0.0386186 0.00754243 -0.0442276 2650 
1476 1 -0.006941 0.0100797 -0.013435 0.000423 0 -0.011753 0 2650 
233 1 -0.00478416 0.00995658 -0.0140641 0.000423 0.000342891 -0.00976437 -0.0328705 2650 
1986 1 -0.003047 0.00957491 -0.0139832 0.000656 0.00762539 0.0149956 0.0116892 2650 
4257 1 -0.0083942 0.0106591 -0.0141309 0.000116 0.0101268 -0.0416798 0.0036163 2650 
3007 1 -0.00108928 0.0114848 -0.0134922 0.000423 -0.0135196 -0.00505473 -0.0280609 2650 
1409 1 -0.00044 0.0110597 -0.013868 0.000116 0 -0.011753 0 2650 
3632 1 -0.00935876 0.0127885 -0.0136126 0.000423 -0.0216519 0.000467483 0.0139725 2650 
478 1 -0.00706713 0.014783 -0.013439 0.000423 -0.0255767 0.012458 -0.051203 2650 
2467 1 -0.00163515 0.0292231 -0.0141205 0.000423 0.0301791 0.103437 0.0421276 2650 
3573 1 -0.0069601 0.0344644 -0.0139938 0.000116 0.196545 -0.226716 -0.153339 2650 
330 1 -0.00707002 -0.00289159 -0.0128702 4.2e-05 -0.0696064 -0.0147686 0.0345761 2650 
4097 1 -0.00869037 -0.00225942 -0.0129017 0.000423 -0.0116536 0.00229875 0.0371095 2650 
800 1 -0.00694485 -0.0018381 -0.0126899 0.000423 0.0734004 0.0256016 0.0971795 2650 
1468 1 -0.0042195 -0.0016512 -0.0131927 0.000423 -0.0197001 -0.0470204 -0.0326717 2650 
3153 1 -0.00141532 -0.0022165 -0.0131831 0.000116 -0.0842498 -0.0374178 0.0430189 2650 
3551 1 -0.00623937 0.00018204 -0.0131468 0.000423 -0.016345 0.00465686 0.00721666 2650 
541 1 -0.0061635 0.00061182 -0.0127913 4.2e-05 -0.0143735 0.00954058 0.00936495 2650 
4126 1 -0.0043771 6.46462e-06 -0.0133241 0.000116 -0.0261531 0.0084042 0.00402279 2650 
2525 1 -0.004063 0.00150668 -0.013231 4.2e-05 0 -0.011753 0 2650 
2619 1 -0.005851 0.00232268 -0.012854 0.000116 0 -0.011753 0 2650 
2609 1 -0.00886 0.00304668 -0.013248 0.000116 0 -0.011753 0 2650 
3880 1 -0.010277 0.00323868 -0.012913 0.000423 0 -0.011753 0 2650 
3645 1 -0.0054447 0.00335732 -0.0127261 0.000423 -0.0357151 -0.0039173 0.0164321 2650 
3917 1 -0.003984 0.00380768 -0.012703 0.000116 0 -0.011753 0 2650 
2918 1 -0.00765638 0.0046089 -0.0131964 0.000116 -0.0132236 0.0205789 -0.0380223 2650 
1032 1 -0.0075703 0.00405004 -0.0129317 0.000423 -0.0173367 -0.00904293 -0.0556269 2650 
2912 1 -0.00583351 0.00460015 -0.0130533 0.000116 0.0344903 0.00459865 -0.0369002 2650 
3322 1 -0.00371432 0.00441019 -0.013241 0.000423 0.0155165 0.0110838 0.0251988 2650 
2059 1 -0.003583 0.00401668 -0.012756 0.000116 0 -0.011753 0 2650 
450 1 -0.00655713 0.00486819 -0.0133091 0.000656 0.0112424 0.0469319 0.00733295 2650 
2596 1 -0.00889102 0.00563893 -0.0133273 0.000116 -0.0442582 -0.0431064 0.0384975 2650 
104 1 -0.00288966 0.0056805 -0.0133286 4.2e-05 -0.00674979 0.0150481 0.0116551 2650 
4078 1 -0.00885688 0.00637516 -0.012725 0.000423 -0.0196946 -0.00953845 0.00130892 2650 
2913 1 -0.00730376 0.00694739 -0.0130732 0.000116 -0.028239 -0.0119827 -0.0130286 2650 
1427 1 -0.002948 0.00634768 -0.013376 4.2e-05 0 -0.011753 0 2650 
1237 1 -0.0101605 0.00762688 -0.0128718 0.000423 -0.00897314 0.0100083 -0.0434947 2650 
3259 1 -0.00862201 0.00766034 -0.0130803 0.000116 -0.0089878 -0.00810535 0.00538998 2650 
1519 1 -0.00253476 0.00773703 -0.0127367 0.000116 -0.0494896 0.0341374 0.0501115 2650 
1795 1 -0.00875663 0.00834551 -0.0129696 0.000423 0.00165908 -0.0118589 -0.000959055 2650 
1769 1 -0.0062581 0.00863321 -0.0133166 0.000656 -0.0139492 0.00030421 -0.000268195 2650 
1250 1 -0.00774678 0.0089417 -0.0129018 0.000423 -0.0109693 -0.0170514 -0.0143142 2650 
205 1 -0.000744 0.00906368 -0.01334 0.000116 0 -0.011753 0 2650 
2483 1 -0.00909339 0.00960325 -0.0132075 0.000116 0.00258646 -0.0218162 0.0129531 2650 
949 1 -0.00634258 0.0107269 -0.0126978 0.000116 -0.0176518 0.0277962 -0.00593252 2650 
1775 1 -0.00822736 0.0118115 -0.0130405 0.000423 -7.29146e-05 -0.011186 -0.000346901 2650 
959 1 -0.00690098 0.0121458 -0.012751 0.000116 -0.0723779 0.0623805 -0.0339909 2650 
3932 1 -0.00505081 0.0200629 -0.013201 0.000116 0.03152 0.0411719 0.0597923 2650 
545 1 -0.002328 -0.00246832 -0.012432 4.2e-05 0 -0.011753 0 2650 
2172 1 -0.0088131 -0.00166598 -0.0121773 0.000116 0.0554355 0.00150652 -0.0523356 2650 
2468 1 -0.003167 -0.00209532 -0.012131 0.000423 0 -0.011753 0 2650 
1763 1 -0.001143 -0.00180732 -0.012442 0.000656 0 -0.011753 0 2650 
2645 1 -0.0057177 -0.00110974 -0.012034 0.000656 -0.0337661 -0.0137944 0.0452096 2650 
1760 1 -0.0545377 -0.000300148 -0.0121844 4.2e-05 3.79007 -0.151151 -2.87431 2650 
3191 1 -0.0069745 -0.000316837 -0.0125279 0.000656 -0.0194676 0.00208869 -0.00166526 2650 
756 1 -0.0062043 -0.000531374 -0.0118732 0.000116 0.041834 0.0697036 0.0154272 2650 
1422 1 -0.003881 3.86792e-05 -0.012349 4.2e-05 0 -0.011753 0 2650 
388 1 -0.00743548 0.00140444 -0.012182 0.000116 0.0212466 0.0335067 0.0250458 2650 
3201 1 -0.00622742 0.00118262 -0.0124277 0.000423 -0.00608722 0.0216696 0.0089772 2650 
1799 1 -0.00323122 0.000847357 -0.0120572 0.000423 7.10678e-05 -0.0118308 4.63239e-05 2650 
3389 1 -0.010415 0.00230468 -0.012026 0.000116 0 -0.011753 0 2650 
3956 1 -0.00903361 0.00171546 -0.0123051 0.000656 -0.000640959 -0.0104529 -0.000368355 2650 
2285 1 -0.0117566 0.00385556 -0.01186 0.000116 0.0175306 0.0103543 0.003719 2650 
411 1 -0.010392 0.00459984 -0.0120896 0.000116 -0.00787832 -0.00657823 -8.20909e-05 2650 
3826 1 -0.009208 0.00419968 -0.012552 0.000116 0 -0.011753 0 2650 
708 1 -0.00276288 0.00455713 -0.0121917 0.000423 -0.00318183 -0.00599768 -0.010405 2650 
3380 1 -0.00222056 0.00451785 -0.0125051 0.000116 -0.00133046 -0.0120531 0.0302183 2650 
2194 1 -0.0023286 0.00464629 -0.0124909 4.2e-05 0.00491046 0.00111596 0.00228026 2650 
2957 1 -0.00183253 0.0041664 -0.012259 4.2e-05 0.0205169 0.0248349 -0.000218849 2650 
3316 1 -0.008979 0.00495268 -0.012376 0.000423 0 -0.011753 0 2650 
1261 1 -0.0074478 0.00496134 -0.0124238 0.000423 -0.000148786 -0.00207045 -0.0014312 2650 
3362 1 -0.00266609 0.00512114 -0.0122672 0.000116 0.000350619 -0.00253681 -0.00404217 2650 
2219 1 -0.00368421 0.00594656 -0.0125573 0.000423 0.0573797 0.046564 0.0166916 2650 
3446 1 -0.002592 0.00595968 -0.012627 0.000423 0 -0.011753 0 2650 
3030 1 -0.001189 0.00646268 -0.012596 0.000116 0 -0.011753 0 2650 
445 1 -0.00957972 0.00728228 -0.0120262 0.000656 -0.00663315 0.0199971 -0.0284275 2650 
4318 1 -0.00857954 0.00771127 -0.0123403 0.000423 -0.00589465 -0.00768269 0.00318441 2650 
2344 1 -0.00102008 0.00763027 -0.0118706 0.000423 0.00597873 -0.023338 -0.0226217 2650 
3847 1 -0.0096604 0.00857915 -0.0124135 0.000656 0.00296919 -0.00343098 -0.00030598 2650 
3173 1 -0.004958 0.00859168 -0.012321 4.2e-05 0 -0.011753 0 2650 
1495 1 -0.004483 0.00793068 -0.012591 0.000116 0 -0.011753 0 2650 
3684 1 -0.00433569 0.00821737 -0.0123995 0.000116 0.00413104 -0.0230128 -0.00941473 2650 
4002 1 -0.000443 0.00862368 -0.01223 0.000116 0 -0.011753 0 2650 
4179 1 -0.00709823 0.00901215 -0.0121133 0.000423 -0.00767678 -0.0221048 -0.00852388 2650 
2630 1 -0.001036 0.00879968 -0.012074 4.2e-05 0 -0.011753 0 2650 
289 1 -0.00126592 0.00976142 -0.0122078 0.000116 -0.0188061 -0.000940224 -0.0594549 2650 
1423 1 -0.00145 0.0102797 -0.012526 4.2e-05 0 -0.011753 0 2650 
3106 1 -0.00712591 0.0117365 -0.0121968 0.000423 -0.042507 0.0242048 -0.0146805 2650 
1802 1 -0.00416086 0.0124603 -0.0120033 0.000423 0.00500259 -0.000364755 -0.0111755 2650 
2205 1 -0.00510425 0.0132762 -0.0120227 0.000656 -0.00206311 0.000112593 -0.00429342 2650 
1143 1 -0.000859893 0.0144009 -0.0124871 0.000423 0.0070315 0.0110531 -0.00616027 2650 
675 1 -0.00508938 0.0209995 -0.012385 0.000423 -0.0171714 0.0807922 0.0289201 2650 
2413 1 -0.00868756 -0.00275907 -0.0114602 4.2e-05 -0.0826713 -0.0311639 0.0536157 2650 
3505 1 -0.006952 -0.00279932 -0.011235 4.2e-05 0 -0.011753 0 2650 
1022 1 -0.002093 -0.00292932 -0.011454 0.000423 0 -0.011753 0 2650 
440 1 -0.00061 -0.00149732 -0.011485 4.2e-05 0 -0.011753 0 2650 
2939 1 -0.00935972 0.000135442 -0.0113995 0.000116 -0.00341769 -0.0275913 0.0148239 2650 
3200 1 -0.00826774 0.000291669 -0.0114394 0.000423 -0.0275514 -0.0115593 0.0194145 2650 
1063 1 -0.009531 0.00222868 -0.011683 0.000116 0 -0.011753 0 2650 
3894 1 -0.005583 0.00167368 -0.011098 0.000116 0 -0.011753 0 2650 
3477 1 -0.00997737 0.00278251 -0.0114123 0.000116 0.0616358 -0.0139442 -0.0219299 2650 
1595 1 -0.00790466 0.00289385 -0.0113665 0.000423 -0.0081111 0.00198047 0.0261702 2650 
2062 1 -0.00609655 0.00307294 -0.0114369 0.000116 -0.0517879 -0.0811336 0.00337392 2650 
2279 1 -0.0119921 0.00369889 -0.0111226 0.000116 -0.0158908 0.0502304 0.00803902 2650 
1125 1 -0.0056987 0.00319824 -0.0117786 0.000423 -0.0443086 0.0114405 0.0272453 2650 
1192 1 -0.0049463 0.00343544 -0.0117084 0.000116 -0.0160738 0.0171838 -0.0228619 2650 
2294 1 -0.004894 0.00390968 -0.011565 0.000116 0 -0.011753 0 2650 
878 1 -0.00391308 0.00456664 -0.011211 4.2e-05 -0.000281569 -0.00211859 -0.00050102 2650 
2474 1 -0.0025783 0.00396012 -0.0112831 0.000423 -0.00380852 -0.00865862 -0.00797376 2650 
1822 1 -0.00821353 0.00492395 -0.011158 0.000116 -0.0361035 -0.0195415 0.0016013 2650 
3221 1 -0.00770781 0.0051658 -0.0113079 0.000423 -0.0383607 -5.03589e-05 -0.0190963 2650 
1758 1 -0.00201 0.00522368 -0.01144 4.2e-05 0 -0.011753 0 2650 
1215 1 -0.0116367 0.00553226 -0.0111902 0.000656 -0.0111274 -0.00319459 -0.00262745 2650 
2409 1 -0.002586 0.00629368 -0.011527 4.2e-05 0 -0.011753 0 2650 
3283 1 -0.00127352 0.00593999 -0.0112792 4.2e-05 0.0397515 0.0433617 -0.0233311 2650 
4310 1 -0.000306573 0.00571284 -0.011594 0.000423 0.011252 0.0218425 0.101284 2650 
763 1 -0.00530887 0.00685425 -0.0110988 4.2e-05 -0.0107376 -0.0192397 -0.014763 2650 
4027 1 -0.003218 0.00635468 -0.011075 0.000116 0 -0.011753 0 2650 
3456 1 -0.00359989 0.00703187 -0.0112369 0.000423 -0.000997028 -0.0111859 -0.00366568 2650 
89 1 -0.00921985 0.00720637 -0.011154 0.000116 -0.0422672 0.00513725 0.00569209 2650 
2338 1 -0.00864866 0.00712164 -0.011195 0.000423 -0.0683967 0.00307149 -0.0306187 2650 