ITEM: TIMESTEP
1554912
ITEM: NUMBER OF ATOMS
4382
ITEM: BOX BOUNDS ff ff ff
-0.15 0.15
-0.15 0.06
-0.15 0.15
ITEM: ATOMS id type x y z radius vx vy vz density 
1845 1 -0.0352673 -0.0581451 -0.0591713 0.000116 -0.0954408 -0.0115944 0.0568846 2650 
3444 1 -0.0410843 -0.0488187 -0.0549094 0.000423 -2.70282 -0.450284 2.0223 2650 
741 1 -0.0442779 -0.0598125 -0.0527683 0.000116 -0.909444 -0.00192016 0.763116 2650 
3143 1 -0.0687632 -0.0536498 -0.00407931 0.000116 -0.0971104 0.570116 1.63695 2650 
634 1 -0.0619496 -0.0512202 0.030121 0.000116 0.533519 -1.0545 1.09728 2650 
3810 1 -0.0361211 -0.0600589 0.058654 0.000116 3.08459 -0.74376 1.89959 2650 
3534 1 -0.00624418 -0.0250616 -0.0682932 0.000423 -3.13266 -0.340702 0.286425 2650 
27 1 -0.00933762 -0.0143459 -0.0679394 0.000423 -3.17987 -0.323278 0.437042 2650 
21 1 -0.011587 -0.0228389 -0.0675921 0.000423 -2.93241 -0.54222 0.502691 2650 
4293 1 -0.0115128 -0.0122318 -0.0676048 0.000423 -3.13746 -0.33448 0.534295 2650 
245 1 -0.0172065 -0.00848329 -0.0663844 0.000423 -3.10767 -0.20616 0.805492 2650 
476 1 -0.0160868 -0.00829581 -0.0666646 0.000423 -3.11315 -0.188312 0.751234 2650 
3650 1 -0.0112747 -0.0081383 -0.0667555 0.000423 -2.44105 -0.24731 3.36091 2650 
2663 1 -0.0130572 -0.00735677 -0.0670471 0.000423 -3.08979 -0.171773 0.995206 2650 
3845 1 -0.0205697 -0.0169198 -0.0651775 0.000656 -3.0909 -0.336065 0.975473 2650 
4345 1 -0.0233847 -0.0158214 -0.0647934 0.000116 -3.01682 -0.367837 1.0888 2650 
3619 1 -0.0224647 -0.00760828 -0.0651962 4.2e-05 -3.0273 -0.16813 1.04312 2650 
259 1 -0.0212119 -0.00627292 -0.0652151 0.000423 -3.04873 -0.14731 0.991628 2650 
1943 1 -0.027504 -0.0176838 -0.0628467 0.000116 -2.85276 -0.808321 1.57318 2650 
1383 1 -0.0287692 -0.0124731 -0.0625888 0.000116 -2.91574 -0.270023 1.34023 2650 
2057 1 -0.0276124 -0.00879327 -0.0631077 0.000116 -2.9339 -0.211732 1.28371 2650 
1568 1 -0.0315587 -0.0361442 -0.0608851 0.000423 -2.42651 -0.666078 1.25774 2650 
2618 1 -0.0327979 -0.0127994 -0.0605749 0.000116 -2.79542 -0.297477 1.51356 2650 
2920 1 -0.0235547 -0.0109433 -0.0594446 0.000116 -3.69823 -0.386412 -9.32517 2650 
3156 1 -0.0367597 -0.0167617 -0.0582559 0.000116 -2.64743 -0.43434 1.67054 2650 
2123 1 -0.0361438 -0.0139773 -0.0582802 0.000423 -2.73208 -0.34506 1.69403 2650 
3313 1 -0.038948 -0.0444876 -0.0564447 0.000423 -2.42834 -0.656299 1.67561 2650 
1239 1 -0.0414927 -0.0277805 -0.0546014 0.000423 -2.55932 -1.22759 1.94487 2650 
3329 1 -0.0420594 -0.0201547 -0.0541444 0.000423 -2.17229 -0.613386 2.10124 2650 
691 1 -0.0420245 -0.011532 -0.0541932 0.000423 -2.53473 -0.334163 1.96557 2650 
538 1 -0.00873234 -0.00521334 -0.0537029 0.000116 -1.33927 -0.166593 -8.34199 2650 
3409 1 -0.0428725 -0.0147601 -0.0513161 0.000656 -0.68178 -0.779173 3.68107 2650 
2208 1 -0.0431333 -0.00759694 -0.0520198 0.000656 -4.17396 -0.207809 -0.387265 2650 
4025 1 -0.0452196 -0.00609971 -0.0519636 0.000116 -2.41553 -0.140847 2.10203 2650 
1990 1 -0.042825 -0.00939934 -0.0490769 0.000656 -2.56113 -0.25112 1.75652 2650 
1687 1 -0.0481839 -0.0251954 -0.0487982 0.000423 -2.07447 -0.367466 2.04836 2650 
3482 1 -0.0478988 -0.00789865 -0.0467188 0.000116 -3.61681 -0.242425 0.660689 2650 
1068 1 -0.0518666 -0.00470765 -0.0451341 0.000116 -7.95621 -0.142775 -6.92525 2650 
1387 1 -0.0503325 -0.00695547 -0.0440367 0.000116 -0.375458 -0.215221 3.59807 2650 
3266 1 -0.0536307 -0.00754325 -0.0432293 0.000116 -1.99952 -0.169634 2.48063 2650 
2337 1 -0.0435667 -0.00476355 -0.0433916 0.000423 -6.73207 -0.14292 -6.70443 2650 
4372 1 -0.0404989 -0.0215733 -0.0416693 4.2e-05 7.25978 -0.625093 -0.812275 2650 
4307 1 -0.0541845 -0.00548793 -0.0412835 0.000423 -8.37452 -0.189904 -6.39451 2650 
3945 1 -0.0556026 -0.0103614 -0.0407867 4.2e-05 -1.893 -0.238708 2.58063 2650 
2846 1 -0.0273833 -0.0040504 -0.0405605 4.2e-05 -4.19248 -0.096463 -6.20996 2650 
2224 1 -0.0567324 -0.00721137 -0.0385278 0.000423 -1.8074 -0.172325 2.66141 2650 
1735 1 -0.00705543 -0.00452073 -0.038179 0.000116 -1.0491 -0.13447 -5.81451 2650 
3718 1 -0.0589295 -0.0188893 -0.0358124 4.2e-05 -1.84888 -0.19388 3.04234 2650 
1760 1 -0.0603618 -0.00150778 -0.0333415 4.2e-05 0.140361 -0.23346 -0.25411 2650 
4342 1 -0.0616486 -0.00920523 -0.0307324 0.000116 -1.41842 -0.239302 2.84533 2650 
1372 1 -0.0623835 -0.006661 -0.0284825 0.000423 -1.32409 -0.169286 2.90007 2650 
1957 1 -0.0633405 -0.0067082 -0.0270741 0.000116 -1.25835 -0.153467 2.94393 2650 
4187 1 -0.0636581 -0.0263324 -0.0255069 0.000423 -1.11845 -0.586736 2.79134 2650 
406 1 -0.00683688 -0.00410893 -0.0259703 0.000116 -1.05134 -0.100101 -3.99359 2650 
1016 1 -0.026566 -0.00962024 -0.0253136 0.000423 -4.03694 -0.578417 -3.90314 2650 
2806 1 -0.064914 -0.0131679 -0.0230478 0.000116 -1.08417 -0.296565 3.05355 2650 
1721 1 -0.0403217 -0.00783681 -0.0203437 0.000116 -6.23698 -0.333979 -3.13239 2650 
671 1 -0.0105368 -0.00495113 -0.0199462 0.000656 -1.59427 -0.223862 -2.95195 2650 
1670 1 -0.0634712 -0.00901595 -0.0194417 0.000423 -2.7577 -0.228573 2.33564 2650 
1818 1 -0.0663706 -0.00638391 -0.0184381 0.000116 -0.857383 -0.1469 3.08628 2650 
3540 1 -0.0208079 -0.00581782 -0.018092 0.000423 -3.26434 -0.197446 -2.8219 2650 
3586 1 -0.0300274 -0.00390243 -0.0175469 0.000116 -4.51996 -0.0865885 -2.64129 2650 
606 1 -0.000183 0.004792 -0.016592 0.000116 0 -0.011753 0 2650 
2713 1 -0.000763 0.011763 -0.016767 0.000116 0 -0.011753 0 2650 
3295 1 -0.00278172 -0.00305789 -0.0159993 0.000656 -0.0132499 -0.037617 0.0325267 2650 
4116 1 -0.004072 -0.000864996 -0.016193 0.000116 0 -0.011753 0 2650 
93 1 -0.00354 -0.000453996 -0.016299 0.000116 0 -0.011753 0 2650 
955 1 -0.0014889 0.000234664 -0.0161898 0.000116 -0.0472058 0.0174319 0.219851 2650 
1991 1 -0.002768 0.001125 -0.01599 0.000656 0 -0.011753 0 2650 
736 1 -0.003429 0.002717 -0.016474 0.000116 0 -0.011753 0 2650 
2013 1 -0.00311761 0.00395106 -0.0160633 0.000423 0.00266818 -0.00871737 -0.00337826 2650 
3789 1 -0.00205459 0.00481408 -0.0161514 0.000116 -0.0185147 0.0392615 -0.0216295 2650 
3546 1 -0.002797 0.005854 -0.016252 0.000423 0 -0.011753 0 2650 
2301 1 -0.004222 0.006565 -0.016305 4.2e-05 0 -0.011753 0 2650 
188 1 -0.00068 0.006334 -0.016516 0.000116 0 -0.011753 0 2650 
3616 1 -0.000938 0.007129 -0.016074 4.2e-05 0 -0.011753 0 2650 
171 1 -0.00229692 0.00884196 -0.0159586 0.000116 0.0221612 -0.025445 0.125633 2650 
3106 1 -0.00288811 0.00980019 -0.0159082 0.000423 -0.04352 0.00221127 0.120558 2650 
3934 1 -0.001977 0.009554 -0.016218 0.000116 0 -0.011753 0 2650 
1974 1 -0.00385994 0.0110648 -0.016209 4.2e-05 -0.0467969 0.0595522 0.116927 2650 
3547 1 -0.0667649 -0.00690702 -0.0156652 0.000423 -0.728833 -0.172578 3.10628 2650 
3441 1 -0.005522 -0.002531 -0.01502 0.000423 0 -0.011753 0 2650 
330 1 -0.001698 -0.00119 -0.015557 4.2e-05 0 -0.011753 0 2650 
2965 1 -2.2e-05 -0.000883996 -0.015341 4.2e-05 0 -0.011753 0 2650 
3733 1 -0.00264143 -0.000698274 -0.0156943 0.000656 -0.00903733 0.00595212 -0.0173299 2650 
541 1 -0.00103638 0.00241358 -0.0150574 4.2e-05 -0.135438 -0.249779 -0.101528 2650 
1679 1 -0.00360411 0.00357788 -0.0154392 0.000423 0.00038771 -0.00537817 -0.000606382 2650 
3645 1 -0.00180888 0.00362831 -0.0152428 0.000423 -0.016092 0.00258107 0.0270932 2650 
615 1 -0.00604829 0.00516742 -0.0156319 0.000116 -0.304292 -0.202476 0.0637749 2650 
3322 1 -0.00471813 0.00531141 -0.0156552 0.000423 -0.00518347 -0.0180774 0.0210045 2650 
2399 1 -0.002418 0.005006 -0.015541 0.000116 0 -0.011753 0 2650 
4296 1 -0.00157713 0.00553878 -0.0156014 0.000423 -0.000356005 -0.0132873 -0.00240934 2650 
1986 1 -0.00399122 0.00771806 -0.0154306 0.000656 0.00762539 0.0149956 0.0116892 2650 
2969 1 -0.001381 0.007576 -0.015354 0.000656 0 -0.011753 0 2650 
978 1 -0.005372 0.008252 -0.015286 0.000116 0 -0.011753 0 2650 
86 1 -0.002064 0.01081 -0.015055 0.000116 0 -0.011753 0 2650 
3177 1 -0.001068 0.01061 -0.015412 4.2e-05 0 -0.011753 0 2650 
3830 1 -0.006879 0.011106 -0.015411 4.2e-05 0 -0.011753 0 2650 
2701 1 -0.00287959 0.0121123 -0.0151929 0.000116 0.0331549 0.247236 -0.00676049 2650 
938 1 -0.000869 0.012016 -0.015416 0.000116 0 -0.011753 0 2650 
3632 1 -0.00640122 0.0128242 -0.0151454 0.000423 -0.0309354 -0.00107411 -0.000159427 2650 
1357 1 -0.00538637 0.0165236 -0.0153877 0.000423 -0.0662446 0.165624 0.033916 2650 
3303 1 -0.00686465 -0.00249933 -0.0147083 0.000656 0.00315709 -0.0674144 0.012339 2650 
2256 1 -0.001753 -0.00308 -0.014775 0.000116 0 -0.011753 0 2650 
747 1 -0.001416 -0.00306 -0.014317 0.000116 0 -0.011753 0 2650 
3502 1 -0.001236 -0.002085 -0.014816 4.2e-05 0 -0.011753 0 2650 
2413 1 -0.003433 -6.99961e-05 -0.014868 4.2e-05 0 -0.011753 0 2650 
1640 1 -0.001358 -0.000751996 -0.014495 4.2e-05 0 -0.011753 0 2650 
2313 1 -0.005044 9.20039e-05 -0.014923 0.000656 0 -0.011753 0 2650 
1053 1 -0.007469 0.001164 -0.014946 0.000116 0 -0.011753 0 2650 
2332 1 -0.003268 0.001455 -0.014853 0.000423 0 -0.011753 0 2650 
3239 1 -0.002155 0.001374 -0.014442 0.000116 0 -0.011753 0 2650 
220 1 -0.003649 0.004069 -0.014897 4.2e-05 0 -0.011753 0 2650 
104 1 -0.00218 0.004318 -0.014554 4.2e-05 0 -0.011753 0 2650 
2293 1 -0.000684985 0.00435492 -0.0144045 0.000116 0.0416688 0.071753 -0.100968 2650 
3121 1 -0.00713253 0.00507325 -0.0149149 0.000423 0.0277737 -0.000599869 -0.0089826 2650 
4165 1 -0.00557518 0.00528096 -0.0149301 0.000656 0.00622358 0.0106794 0.0127596 2650 
1219 1 -0.00382316 0.00484857 -0.0148809 0.000656 0.0362784 0.0225017 -0.0291106 2650 
3147 1 -0.00192769 0.00494721 -0.0147511 0.000116 -0.00706837 0.0221131 0.0132401 2650 
3564 1 -0.000147 0.006795 -0.014738 0.000423 0 -0.011753 0 2650 
2438 1 -0.005612 0.007367 -0.014612 0.000423 0 -0.011753 0 2650 
3365 1 -0.002315 0.007432 -0.014552 0.000116 0 -0.011753 0 2650 
4190 1 -0.007319 0.009102 -0.014559 0.000423 0 -0.011753 0 2650 
3515 1 -0.0052361 0.00942227 -0.0148847 0.000656 -0.0258541 -0.014476 -0.00535425 2650 
1228 1 -0.001302 0.010887 -0.014946 0.000423 0 -0.011753 0 2650 
371 1 -0.000519618 0.0108244 -0.0143896 0.000423 -0.000508818 -0.00613125 -0.00679769 2650 
1381 1 -0.00692601 0.0123385 -0.0145999 0.000116 -0.187535 0.0807472 -0.110843 2650 
884 1 -0.00528004 0.0127329 -0.0147821 0.000656 -0.0213431 0.0225291 0.0346991 2650 
728 1 -0.00438233 0.0127978 -0.014919 0.000116 0.0277452 0.106546 0.043675 2650 
1026 1 -0.00729685 0.0297871 -0.0146951 0.000423 0.0636188 0.283269 0.255551 2650 
78 1 -0.00535037 0.0493613 -0.0145378 0.000116 -0.223653 -0.604848 0.414357 2650 
3479 1 -0.000261847 -0.0046408 -0.0136271 0.000116 -0.106089 -0.26417 -1.60108 2650 
3622 1 -0.00539091 -0.00318581 -0.0137711 0.000656 0.00467838 -0.0472728 -0.0117267 2650 
3229 1 -0.006614 -0.002962 -0.01374 0.000423 0 -0.011753 0 2650 
327 1 -0.003849 -0.002842 -0.013874 4.2e-05 0 -0.011753 0 2650 
2705 1 -0.001432 -0.003023 -0.013674 0.000116 0 -0.011753 0 2650 
1393 1 -0.009523 -0.001735 -0.013534 0.000116 0 -0.011753 0 2650 
2939 1 -0.008405 -0.002039 -0.013483 0.000116 0 -0.011753 0 2650 
4056 1 -0.00394819 -0.00152688 -0.0135343 0.000656 0.0545981 -0.0365229 -0.0165599 2650 
2783 1 -0.00330878 -0.000680753 -0.013765 0.000423 0.0164122 0.0046694 -0.00599805 2650 
4126 1 -0.001667 -0.000626996 -0.013741 0.000116 0 -0.011753 0 2650 
2957 1 -0.00865344 0.000830617 -0.0135237 4.2e-05 0.190271 0.24155 -0.0115339 2650 
3778 1 -0.003893 0.000817004 -0.013816 0.000423 0 -0.011753 0 2650 
1620 1 -0.008456 0.002836 -0.013856 0.000116 0 -0.011753 0 2650 
3380 1 -0.00363794 0.00393581 -0.0139677 0.000116 0.0317028 -0.0320627 -0.198117 2650 
1569 1 -0.00227914 0.00393668 -0.0140542 0.000423 -0.0214881 0.00570095 0.0411068 2650 
3587 1 -0.006279 0.004093 -0.013694 0.000116 0 -0.011753 0 2650 
2485 1 -0.00412919 0.00471476 -0.013925 0.000116 0.105115 -0.0174821 0.0881387 2650 
2322 1 -0.00710432 0.00825108 -0.0135155 0.000656 -0.00732336 -0.00366906 -0.00588437 2650 
713 1 -0.00490506 0.00864491 -0.0139559 0.000423 -0.0205718 -0.00213651 0.0254432 2650 
1288 1 -0.002467 0.008735 -0.014044 0.000116 0 -0.011753 0 2650 
2222 1 -0.000169 0.009364 -0.014111 0.000423 0 -0.011753 0 2650 
581 1 -0.005568 0.010256 -0.014167 0.000423 0 -0.011753 0 2650 
2596 1 -0.00174914 0.0108711 -0.0140517 0.000116 -0.0696583 -0.0414928 -0.0233005 2650 
1476 1 -0.006941 0.011535 -0.013435 0.000423 0 -0.011753 0 2650 
2250 1 -0.00535157 0.0117005 -0.0140281 0.000423 -0.0796097 0.0756391 0.0421091 2650 
3669 1 -0.00056724 0.0116993 -0.0141198 0.000423 0.00220454 -0.00743356 -0.00383523 2650 
1409 1 -0.00044 0.012515 -0.013868 0.000116 0 -0.011753 0 2650 
827 1 -0.005975 -0.003166 -0.013005 0.000116 0 -0.011753 0 2650 
428 1 -0.00922 -0.002993 -0.013206 0.000116 0 -0.011753 0 2650 
3633 1 -0.00941 -0.002469 -0.013111 0.000423 0 -0.011753 0 2650 
3015 1 -0.00836987 -0.00305925 -0.0130588 0.000423 -0.000783602 -0.0132544 -0.00211019 2650 
167 1 -0.004273 -0.003008 -0.012826 0.000116 0 -0.011753 0 2650 
1487 1 -0.004643 -0.002599 -0.013241 0.000116 0 -0.011753 0 2650 
2732 1 -0.002992 -0.003073 -0.013183 0.000116 0 -0.011753 0 2650 
3551 1 -0.005293 0.000876004 -0.013215 0.000423 0 -0.011753 0 2650 
1125 1 -0.000165 0.001463 -0.013134 0.000423 0 -0.011753 0 2650 
4371 1 -0.000719 0.002274 -0.012831 0.000116 0 -0.011753 0 2650 
2525 1 -0.004063 0.002962 -0.013231 4.2e-05 0 -0.011753 0 2650 
856 1 -0.00314725 0.00263879 -0.0128779 0.000116 0.0675892 -0.133711 -0.0889902 2650 
2283 1 -0.000701 0.002589 -0.012847 0.000116 0 -0.011753 0 2650 
1595 1 -0.007474 0.00362 -0.012756 0.000423 0 -0.011753 0 2650 
2619 1 -0.005851 0.003778 -0.012854 0.000116 0 -0.011753 0 2650 
3880 1 -0.010277 0.004694 -0.012913 0.000423 0 -0.011753 0 2650 
2609 1 -0.00886 0.004502 -0.013248 0.000116 0 -0.011753 0 2650 
1059 1 -0.00680227 0.00415345 -0.0131132 0.000116 -0.00683586 -0.0187509 0.0600761 2650 
2547 1 -0.00834394 0.00485381 -0.0134168 0.000423 -0.0496338 0.0303678 0.0549021 2650 
3917 1 -0.003984 0.005263 -0.012703 0.000116 0 -0.011753 0 2650 
2059 1 -0.003583 0.005472 -0.012756 0.000116 0 -0.011753 0 2650 
2194 1 -0.002781 0.004916 -0.012701 4.2e-05 0 -0.011753 0 2650 
2918 1 -0.00757 0.005853 -0.012948 0.000116 0 -0.011753 0 2650 
4078 1 -0.00641818 0.00755626 -0.0128871 0.000423 -0.0196946 -0.00953845 0.00130892 2650 
1427 1 -0.002948 0.007803 -0.013376 4.2e-05 0 -0.011753 0 2650 
4318 1 -0.00784963 0.00866259 -0.0127347 0.000423 -0.00589465 -0.00768269 0.00318441 2650 
70 1 -0.0104075 0.00946175 -0.0126744 0.000116 -0.0438474 0.0364979 -0.0265492 2650 
3259 1 -0.008055 0.008868 -0.013388 0.000116 0 -0.011753 0 2650 
1795 1 -0.008775 0.009802 -0.012959 0.000423 0 -0.011753 0 2650 
1769 1 -0.004822 0.009723 -0.013243 0.000656 0 -0.011753 0 2650 
205 1 -0.000744 0.010519 -0.01334 0.000116 0 -0.011753 0 2650 
4314 1 -0.00523651 0.011865 -0.0126515 0.000423 -0.081014 -0.0186136 0.0169729 2650 
2109 1 -0.00246525 0.0119038 -0.012641 0.000423 -0.0263796 0.073224 -0.0180073 2650 
1775 1 -0.00821833 0.0131966 -0.0129976 0.000423 -7.29146e-05 -0.011186 -0.000346901 2650 
2483 1 -0.00825163 0.0126453 -0.012838 0.000116 -0.0165283 -0.027419 -0.0195094 2650 
4160 1 -0.006657 0.012885 -0.013271 4.2e-05 0 -0.011753 0 2650 
3644 1 -0.000733 0.01319 -0.013392 0.000423 0 -0.011753 0 2650 
854 1 -0.0655461 -0.0101005 -0.0118747 0.000116 1.22186 -0.412 3.22738 2650 
2238 1 -0.00688257 -0.00333625 -0.0122677 0.000423 -0.1258 -0.0497881 -0.215852 2650 
4068 1 -0.00196154 -0.00330808 -0.0123809 0.000423 -0.0287262 -0.0153889 -0.181315 2650 
2685 1 -0.00848824 -0.00290512 -0.0120884 0.000423 -0.0435841 -0.0507847 0.0344431 2650 
3200 1 -0.00637895 -0.00247492 -0.0125375 0.000423 -0.0584286 0.0362387 -0.0708842 2650 
3999 1 -0.00533371 -0.00242133 -0.0118841 0.000423 0.0879004 0.164354 -0.0424 2650 
1320 1 -0.00245305 -0.00245628 -0.0121618 4.2e-05 -0.254702 -0.0436543 -0.0976793 2650 
4150 1 -0.001319 -0.002464 -0.012208 0.000116 0 -0.011753 0 2650 
868 1 -0.000201 -0.002839 -0.012301 0.000116 0 -0.011753 0 2650 
3261 1 -0.0105984 -0.00233983 -0.0119493 0.000116 -0.0103871 -0.0646193 0.0251386 2650 
1924 1 -0.0103308 -0.00169341 -0.0119822 0.000423 0.000254196 -0.0523207 0.0386036 2650 
545 1 -0.002328 -0.001013 -0.012432 4.2e-05 0 -0.011753 0 2650 
2819 1 -0.007468 -0.000478996 -0.012046 0.000116 0 -0.011753 0 2650 
3196 1 -0.00611119 -0.000465742 -0.0120682 0.000423 0.0418395 0.00921167 -0.158288 2650 
2468 1 -0.003167 -0.000639996 -0.012131 0.000423 0 -0.011753 0 2650 
1763 1 -0.001143 -0.000351996 -0.012442 0.000656 0 -0.011753 0 2650 
950 1 -0.010031 0.000253004 -0.011866 0.000116 0 -0.011753 0 2650 
1422 1 -0.003881 0.001494 -0.012349 4.2e-05 0 -0.011753 0 2650 
3637 1 -0.002026 0.000827004 -0.012108 0.000423 0 -0.011753 0 2650 
623 1 -0.005429 0.002001 -0.012246 0.000116 0 -0.011753 0 2650 
1799 1 -0.003237 0.002309 -0.012061 0.000423 0 -0.011753 0 2650 
3956 1 -0.008956 0.00308 -0.012273 0.000656 0 -0.011753 0 2650 
3389 1 -0.010415 0.00376 -0.012026 0.000116 0 -0.011753 0 2650 
1579 1 -0.000469501 0.0035454 -0.0122735 0.000423 0.0668846 -0.0415085 -0.175467 2650 
1589 1 -0.00994467 0.00454243 -0.0119186 0.000423 -0.0647442 0.0335493 0.0762813 2650 
3351 1 -0.00468933 0.0039449 -0.0121215 0.000116 0.0791294 -0.101341 -0.231207 2650 
2253 1 -0.00173803 0.00460936 -0.0123233 0.000423 0.0920831 0.035812 0.016033 2650 
1657 1 -0.00880352 0.00497034 -0.0120829 0.000656 -0.00770092 -0.0112608 -0.00233815 2650 
411 1 -0.009436 0.005428 -0.012079 0.000116 0 -0.011753 0 2650 
3826 1 -0.009208 0.005655 -0.012552 0.000116 0 -0.011753 0 2650 
1261 1 -0.007462 0.006312 -0.012403 0.000423 0 -0.011753 0 2650 
4241 1 -0.00027328 0.00590723 -0.0124695 0.000116 0.0418184 0.0132573 0.0231045 2650 
3316 1 -0.008979 0.006408 -0.012376 0.000423 0 -0.011753 0 2650 
3362 1 -0.002672 0.006421 -0.012199 0.000116 0 -0.011753 0 2650 
958 1 -0.00294045 0.00700498 -0.0123427 0.000116 -0.112936 0.0629473 -0.172921 2650 
222 1 -0.00133366 0.0064415 -0.0119781 0.000656 -0.00297797 -0.0641339 -0.0320517 2650 
3446 1 -0.002592 0.007415 -0.012627 0.000423 0 -0.011753 0 2650 
3030 1 -0.001189 0.007918 -0.012596 0.000116 0 -0.011753 0 2650 
191 1 -0.011348 0.009239 -0.012254 0.000116 0 -0.011753 0 2650 
2777 1 -0.00590656 0.0088375 -0.0120268 0.000423 -0.0211573 0.049566 0.0339685 2650 
1495 1 -0.004483 0.009386 -0.012591 0.000116 0 -0.011753 0 2650 
3847 1 -0.00973878 0.00984026 -0.0124059 0.000656 6.67707e-05 -0.0116743 2.1441e-05 2650 
3173 1 -0.004958 0.010047 -0.012321 4.2e-05 0 -0.011753 0 2650 
2630 1 -0.001036 0.010255 -0.012074 4.2e-05 0 -0.011753 0 2650 
4002 1 -0.000443 0.010079 -0.01223 0.000116 0 -0.011753 0 2650 
1250 1 -0.007399 0.010565 -0.012448 0.000423 0 -0.011753 0 2650 
65 1 -0.009488 0.01146 -0.011959 0.000116 0 -0.011753 0 2650 
1423 1 -0.00145 0.011735 -0.012526 4.2e-05 0 -0.011753 0 2650 
1578 1 -0.00898887 0.0127032 -0.0119094 0.000423 -0.0917795 0.00602193 0.00454943 2650 
2205 1 -0.00483328 0.0129977 -0.0123098 0.000656 -0.00242931 0.00374128 0.00608177 2650 
1900 1 -0.00530829 0.0173228 -0.0124586 0.000423 -0.0944124 0.200719 -0.0873639 2650 
3859 1 -0.00297241 0.0168041 -0.0120632 0.000423 0.0625424 0.161989 -0.116581 2650 
3294 1 -0.00718765 0.0360443 -0.0120214 0.000656 -0.0563035 0.49326 0.113749 2650 
811 1 -0.00856084 -0.00370397 -0.0112748 0.000423 -0.951593 -0.090273 -1.24244 2650 
2072 1 -0.009308 -0.00244 -0.011721 0.000116 0 -0.011753 0 2650 
2544 1 -0.000545353 -0.00245661 -0.0113807 0.000423 -0.121528 -0.0232794 -0.0140445 2650 
3679 1 -0.012092 -0.002302 -0.011604 0.000116 0 -0.011753 0 2650 
249 1 -0.0103955 -0.000938327 -0.0111083 0.000423 -0.040423 -0.0376941 0.0629075 2650 
2166 1 -0.009005 -0.000933996 -0.011549 0.000116 0 -0.011753 0 2650 
3505 1 -0.006952 -0.001344 -0.011235 4.2e-05 0 -0.011753 0 2650 
3191 1 -0.00530185 -0.00135486 -0.0115493 0.000656 -0.0442695 0.00235925 -0.00260127 2650 
1022 1 -0.002093 -0.001474 -0.011454 0.000423 0 -0.011753 0 2650 
2022 1 -0.00549285 -9.00305e-05 -0.0111047 0.000423 -0.025362 0.0209777 0.00742457 2650 
1901 1 -0.0039981 -0.000441667 -0.0114501 0.000423 -0.0220801 -0.0570589 0.0406976 2650 
440 1 -0.00061 -4.19961e-05 -0.011485 4.2e-05 0 -0.011753 0 2650 
2827 1 -0.001988 0.000195004 -0.011163 0.000116 0 -0.011753 0 2650 
3643 1 -0.00492016 0.000868823 -0.0117819 0.000423 -0.0276464 -0.00536394 0.0154079 2650 
4215 1 -0.011184 0.002067 -0.011524 0.000423 0 -0.011753 0 2650 
2579 1 -0.008716 0.002077 -0.011261 0.000423 0 -0.011753 0 2650 
1452 1 -0.00126306 0.00187329 -0.0111688 0.000423 0.00554637 -0.012591 0.0031522 2650 
2279 1 -0.011345 0.00263 -0.01145 0.000116 0 -0.011753 0 2650 
3411 1 -0.0100108 0.00272502 -0.0114896 0.000656 0.0131942 0.0130309 0.0293002 2650 
3894 1 -0.005583 0.003129 -0.011098 0.000116 0 -0.011753 0 2650 
3535 1 -9.9e-05 0.00237 -0.011488 0.000423 0 -0.011753 0 2650 
1063 1 -0.009531 0.003684 -0.011683 0.000116 0 -0.011753 0 2650 
3383 1 -0.011681 0.004679 -0.011229 0.000116 0 -0.011753 0 2650 
2294 1 -0.004894 0.005365 -0.011565 0.000116 0 -0.011753 0 2650 
3542 1 -0.00380651 0.00488884 -0.0112599 0.000423 0.00241856 -0.00915467 -0.000529042 2650 
878 1 -0.003908 0.005848 -0.011202 4.2e-05 0 -0.011753 0 2650 
708 1 -0.00252 0.005561 -0.011391 0.000423 0 -0.011753 0 2650 
1215 1 -0.00980563 0.00685012 -0.0113856 0.000656 -0.0151247 -0.0120252 0.00241313 2650 
1822 1 -0.008034 0.006418 -0.011166 0.000116 0 -0.011753 0 2650 
234 1 -0.0044282 0.00637246 -0.0118318 0.000423 0.00472056 -0.0217141 -0.0831894 2650 
1758 1 -0.00201 0.006679 -0.01144 4.2e-05 0 -0.011753 0 2650 
4027 1 -0.003218 0.00781 -0.011075 0.000116 0 -0.011753 0 2650 
2409 1 -0.002586 0.007749 -0.011527 4.2e-05 0 -0.011753 0 2650 
4066 1 -0.00639724 0.00846714 -0.0111312 0.000656 -0.00806035 0.00608947 0.031678 2650 
2913 1 -0.00380704 0.00843116 -0.0114599 0.000116 -0.028239 -0.0119827 -0.0130286 2650 
675 1 -0.00176294 0.00811353 -0.0115352 0.000423 -0.0542955 0.145292 -0.148325 2650 
2798 1 -0.008755 0.008849 -0.01131 0.000423 0 -0.011753 0 2650 
1617 1 -0.00424 0.009738 -0.011492 0.000116 0 -0.011753 0 2650 
3684 1 -0.00483 0.01102 -0.011273 0.000116 0 -0.011753 0 2650 
1663 1 -0.009704 0.012133 -0.011499 0.000423 0 -0.011753 0 2650 
3145 1 -0.006381 0.012201 -0.011273 0.000116 0 -0.011753 0 2650 
2111 1 -0.009632 0.01312 -0.011343 0.000423 0 -0.011753 0 2650 
911 1 -0.00772967 0.0130535 -0.0116667 0.000423 -0.0610785 0.041843 0.0219805 2650 
1143 1 -0.00174707 0.0130867 -0.0117959 0.000423 0.00744219 0.00969658 -0.00437689 2650 
3784 1 -0.0103402 0.0140454 -0.0111664 0.000116 -0.0748727 0.0872127 -0.0809338 2650 
976 1 -0.005828 0.013578 -0.011785 0.000116 0 -0.011753 0 2650 
734 1 -0.0680649 -0.0232449 -0.010592 0.000116 -0.187547 -0.451349 1.20519 2650 
3652 1 -0.0135713 -0.0047399 -0.010541 0.000423 -0.557306 -0.540944 -0.49072 2650 
2820 1 -0.007052 -0.003084 -0.010962 0.000116 0 -0.011753 0 2650 
3265 1 -0.006001 -0.003096 -0.010684 0.000116 0 -0.011753 0 2650 
4285 1 -0.0122608 -0.00214025 -0.010493 0.000423 0.0347157 0.0357807 0.0965453 2650 
3603 1 -0.004768 -0.00174 -0.010424 0.000116 0 -0.011753 0 2650 
4373 1 -0.004239 -0.002078 -0.010869 4.2e-05 0 -0.011753 0 2650 
15 1 -0.001892 -0.001687 -0.010407 0.000423 0 -0.011753 0 2650 
3426 1 -0.000999225 -0.00234857 -0.0105914 0.000423 -0.000402393 -0.0123419 -0.000971192 2650 
2848 1 -0.0104656 -0.00105399 -0.0106574 4.2e-05 -0.0188445 -0.0333099 0.0794967 2650 
3960 1 -0.0086362 -0.000165775 -0.0109077 0.000423 -0.00140487 -0.0313858 -0.020846 2650 
3093 1 -0.002889 -0.000447996 -0.010782 0.000423 0 -0.011753 0 2650 
2130 1 -0.000316 -0.000622996 -0.010491 0.000423 0 -0.011753 0 2650 
1193 1 -4.3e-05 -5.69961e-05 -0.010628 0.000116 0 -0.011753 0 2650 
388 1 -0.008271 0.000461004 -0.010879 0.000116 0 -0.011753 0 2650 
2219 1 -0.00860881 0.000583027 -0.0104576 0.000423 -0.0034576 0.0481486 -0.0972403 2650 
2542 1 -0.005905 0.000746004 -0.010347 0.000423 0 -0.011753 0 2650 
3673 1 -0.00272 0.000407004 -0.010833 0.000423 0 -0.011753 0 2650 
3284 1 -0.001323 0.000432004 -0.010635 4.2e-05 0 -0.011753 0 2650 
3311 1 -0.0125682 0.00109143 -0.0103904 0.000423 -0.0747278 -0.00533361 -0.00244836 2650 
3530 1 -0.000573 0.000902004 -0.010526 0.000423 0 -0.011753 0 2650 
1233 1 -0.012882 0.002061 -0.010287 0.000423 0 -0.011753 0 2650 
4104 1 -0.00958084 0.00301352 -0.0104465 0.000423 0.0176609 0.00661803 0.0388448 2650 
497 1 -0.00574 0.003055 -0.010398 0.000116 0 -0.011753 0 2650 
124 1 -0.005032 0.00296 -0.01051 0.000423 0 -0.011753 0 2650 
3223 1 -0.0106549 0.00377991 -0.0109253 0.000423 -0.0120555 0.0292219 0.0276155 2650 
1192 1 -0.004051 0.003279 -0.010435 0.000116 0 -0.011753 0 2650 
3201 1 -0.00257008 0.00329785 -0.0109854 0.000423 -0.0605399 -0.0413426 -0.023818 2650 
2912 1 -0.006578 0.005222 -0.010859 0.000116 0 -0.011753 0 2650 
933 1 -0.0119168 0.00601966 -0.0108624 0.000423 -0.104651 -0.0192403 0.109355 2650 
2471 1 -0.00956983 0.00609331 -0.0105183 0.000423 -0.0697137 -0.00946458 0.0648066 2650 
3787 1 -0.006362 0.005658 -0.010668 0.000116 0 -0.011753 0 2650 
760 1 -0.006943 0.005995 -0.010573 4.2e-05 0 -0.011753 0 2650 
861 1 -0.006339 0.006169 -0.010358 0.000116 0 -0.011753 0 2650 
2326 1 -0.0117404 0.00681495 -0.0105975 0.000423 0.00654137 0.0113769 0.0231902 2650 
1584 1 -0.00438829 0.00647235 -0.0109502 0.000423 0.0377863 -0.0108548 -0.0614448 2650 
2500 1 -0.010648 0.007544 -0.010771 0.000116 0 -0.011753 0 2650 
4166 1 -0.00421968 0.00764526 -0.0105428 0.000656 -0.000473877 -0.0124048 -0.000834416 2650 
2948 1 -0.002008 0.007361 -0.010384 0.000116 0 -0.011753 0 2650 
3727 1 -0.004412 0.008299 -0.010287 4.2e-05 0 -0.011753 0 2650 
3456 1 -0.00347643 0.00841697 -0.010783 0.000423 -0.000997028 -0.0111859 -0.00366568 2650 
1327 1 -0.0107383 0.00904216 -0.0109577 0.000656 -0.0701325 0.0502865 0.106736 2650 
1935 1 -0.00497173 0.00871435 -0.0106751 0.000116 -0.0496311 0.00727001 0.00060962 2650 
1010 1 -0.0116815 0.00956968 -0.0109005 0.000423 -0.098653 0.0526543 0.012571 2650 
2097 1 -0.00889 0.010113 -0.010395 0.000656 0 -0.011753 0 2650 
3132 1 -0.007716 0.00962 -0.01033 0.000116 0 -0.011753 0 2650 
89 1 -0.003936 0.010165 -0.010466 0.000116 0 -0.011753 0 2650 
1376 1 -0.009927 0.010859 -0.010971 0.000116 0 -0.011753 0 2650 
2759 1 -0.011495 0.011113 -0.010915 0.000656 0 -0.011753 0 2650 
2260 1 -0.008542 0.011831 -0.010892 0.000116 0 -0.011753 0 2650 
2261 1 -0.007381 0.01121 -0.010514 0.000116 0 -0.011753 0 2650 
233 1 -0.004974 0.011446 -0.010958 0.000423 0 -0.011753 0 2650 
4167 1 -0.003538 0.011553 -0.010916 0.000656 0 -0.011753 0 2650 
499 1 -0.011613 0.012581 -0.010379 0.000116 0 -0.011753 0 2650 
1802 1 -0.00458967 0.0122924 -0.0103913 0.000423 0.00588614 -0.0012339 -0.0133873 2650 
1754 1 -0.008854 0.012687 -0.010611 4.2e-05 0 -0.011753 0 2650 
1913 1 -0.008189 0.012821 -0.010954 0.000423 0 -0.011753 0 2650 
3595 1 -0.007357 0.01339 -0.010628 0.000116 0 -0.011753 0 2650 
3767 1 -0.006013 0.013306 -0.010843 0.000423 0 -0.011753 0 2650 
3899 1 -0.0043453 0.0127857 -0.0104533 0.000116 0.00741193 0.00259205 -0.00468292 2650 
963 1 -0.000669 0.013369 -0.010387 0.000116 0 -0.011753 0 2650 
1346 1 -0.00117632 0.01546 -0.011006 0.000423 0.0112383 0.146251 0.0960885 2650 
3918 1 -0.0681355 -0.00737795 -0.0101282 0.000116 -0.471112 -0.171189 3.1693 2650 
3933 1 -0.006596 -0.002377 -0.009623 0.000116 0 -0.011753 0 2650 
3640 1 -0.00938091 -0.00193041 -0.00971325 0.000423 0.0106565 -0.0526658 0.0459604 2650 
417 1 -0.004944 -0.001011 -0.009884 0.000116 0 -0.011753 0 2650 
939 1 -0.00232471 -0.00110077 -0.0100157 0.000116 -0.0969922 0.0405118 -0.0791893 2650 
1630 1 -0.00227 -0.001256 -0.00958 0.000116 0 -0.011753 0 2650 
1774 1 -0.00159578 -0.000926115 -0.00980277 0.000423 -0.020219 0.123469 -0.101933 2650 
4306 1 -0.0129256 -0.000502383 -0.0101306 0.000423 0.00147262 -0.0100779 0.021941 2650 
250 1 -0.012117 -0.000768907 -0.00969335 0.000423 -0.0752338 -0.0500743 0.0499866 2650 
450 1 -0.00697683 -0.000399774 -0.00969974 0.000656 0.0173824 0.0194182 -0.108349 2650 
3460 1 -0.0131541 3.8574e-05 -0.00983678 0.000116 -0.0168758 0.0338595 0.0274825 2650 
2778 1 -0.0125267 0.000198038 -0.00975165 0.000423 -0.0280671 0.0334565 0.0247291 2650 
1750 1 -0.0120194 0.000768418 -0.00959761 4.2e-05 -0.0339763 -0.0109217 0.0389988 2650 
1562 1 -0.002141 0.000514004 -0.010154 0.000423 0 -0.011753 0 2650 
3866 1 -0.0132435 0.00134523 -0.00972742 0.000423 -0.0467931 0.0221231 0.0961356 2650 
704 1 -0.0111437 0.00132715 -0.00981441 0.000423 0.0933143 0.0949279 0.155409 2650 
3264 1 -0.003542 0.000943004 -0.010108 0.000116 0 -0.011753 0 2650 
800 1 -0.00114 0.001233 -0.009738 0.000423 0 -0.011753 0 2650 
3832 1 -0.01255 0.002361 -0.009616 4.2e-05 0 -0.011753 0 2650 
2975 1 -0.0117591 0.0022403 -0.00989545 0.000656 -0.0244051 0.0660105 0.0114787 2650 
4374 1 -0.008921 0.002127 -0.009568 4.2e-05 0 -0.011753 0 2650 
3250 1 -0.008233 0.0021 -0.010036 0.000116 0 -0.011753 0 2650 
2763 1 -0.000714954 0.00228593 -0.0101914 0.000423 -0.0055086 -0.0995095 0.12249 2650 
3135 1 -0.00035665 0.00187542 -0.0101463 0.000116 0.0552634 -0.0912552 0.0135542 2650 
123 1 -0.0105221 0.0027121 -0.0101402 0.000423 0.0739796 0.28159 0.0851183 2650 
3324 1 -0.0118813 0.00372782 -0.00969108 0.000423 -0.0200385 -0.00420528 -0.0127862 2650 
1160 1 -0.0100837 0.00321298 -0.0102264 0.000116 0.0194111 0.288161 0.0817022 2650 
1977 1 -0.006037 0.00337 -0.009842 4.2e-05 0 -0.011753 0 2650 
364 1 -0.008943 0.00433 -0.009746 0.000423 0 -0.011753 0 2650 
3235 1 -0.00671968 0.00425954 -0.0101671 0.000423 -0.00964959 -0.00505816 0.00778247 2650 
3790 1 -0.012918 0.005301 -0.010098 0.000116 0 -0.011753 0 2650 
3031 1 -0.011934 0.00487 -0.00971 0.000116 0 -0.011753 0 2650 
3116 1 -0.01058 0.005371 -0.009568 0.000423 0 -0.011753 0 2650 
2474 1 -0.00195637 0.00475074 -0.00979902 0.000423 -0.00698311 -0.00271323 -0.0184622 2650 
4256 1 -0.007946 0.006064 -0.010197 0.000116 0 -0.011753 0 2650 
3364 1 -0.006241 0.006163 -0.010015 0.000116 0 -0.011753 0 2650 
1310 1 -0.011355 0.007423 -0.010263 4.2e-05 0 -0.011753 0 2650 
2789 1 -0.00173156 0.00779017 -0.00984112 0.000423 0.0240757 -0.00288111 -0.0483737 2650 