ITEM: TIMESTEP
7159074
ITEM: NUMBER OF ATOMS
4338
ITEM: BOX BOUNDS ff ff ff
-0.15 0.15
-0.15 0.06
-0.15 0.15
ITEM: ATOMS id type x y z radius vx vy vz density 
4366 1 -0.0088169 -0.0560024 -0.0683175 0.000116 -0.969586 0.782495 0.125132 2650 
2765 1 -0.00502791 -0.0489001 -0.0683935 0.000423 -2.09263 0.333887 0.153838 2650 
1587 1 -0.0103763 -0.0543692 -0.0677886 0.000423 3.4267 1.38426 -0.524519 2650 
632 1 -0.0162465 -0.0565012 -0.0669408 0.000116 -3.28303 -0.161183 0.796789 2650 
2527 1 -0.0197005 -0.0602003 -0.0657997 4.2e-05 4.26242 -1.42346 1.12814 2650 
259 1 -0.0235289 -0.0618469 -0.0644154 0.000423 -1.51279 -0.223761 0.552573 2650 
3918 1 -0.0262359 -0.060968 -0.063373 0.000116 2.70646 0.452451 -5.15377 2650 
239 1 -0.0264154 -0.0506141 -0.0632865 0.000423 -2.32309 -0.451584 0.969644 2650 
3387 1 -0.0281352 -0.0617654 -0.062601 0.000116 1.4603 1.1488 1.42817 2650 
833 1 -0.0292371 -0.0531314 -0.0623716 0.000116 3.06097 1.0139 -1.43485 2650 
897 1 -0.0336064 -0.0487887 -0.0597792 0.000423 -1.52561 0.35215 0.857662 2650 
814 1 -0.0361385 -0.0459948 -0.0582835 0.000423 -2.06206 0.25473 1.27858 2650 
19 1 -0.03921 -0.0588867 -0.056263 0.000423 0.78 -0.137593 -0.543586 2650 
1471 1 -0.0415812 -0.0456326 -0.054534 0.000423 -0.504645 -0.348339 0.384783 2650 
486 1 -0.0409628 -0.0451739 -0.055 0.000423 -0.546795 -0.0974074 0.407241 2650 
2451 1 -0.0429253 -0.0481334 -0.0534825 0.000423 -2.85502 -0.70346 2.29146 2650 
868 1 -0.04413 -0.0593392 -0.052892 0.000116 0.447958 -0.0956166 -0.373749 2650 
4139 1 -0.0448851 -0.048261 -0.0522527 0.000116 -1.56004 0.68452 1.34007 2650 
3974 1 -0.0447199 -0.0586654 -0.0519911 0.000423 0.510609 0.0766598 -0.439198 2650 
1231 1 -0.0459975 -0.0456673 -0.0508643 0.000423 -0.925513 -0.0452843 0.836958 2650 
1326 1 -0.0464354 -0.0526755 -0.0501494 0.000656 -1.93938 -0.0292712 1.79575 2650 
3090 1 -0.0480896 -0.0541655 -0.0488911 0.000423 -1.06522 -1.30322 1.04776 2650 
1081 1 -0.0505671 -0.0560681 -0.0467761 0.000116 5.31381 0.810744 -5.74447 2650 
4373 1 -0.0500722 -0.0624067 -0.0451365 4.2e-05 2.13292 0.523579 0.89896 2650 
3005 1 -0.0526002 -0.0617258 -0.0440019 0.000423 -0.897691 -0.713535 1.07311 2650 
2167 1 -0.0530688 -0.0494686 -0.0439172 0.000116 -0.0216019 -0.452345 0.0261034 2650 
2515 1 -0.0555092 -0.046565 -0.0407892 0.000116 3.26426 0.375845 -4.44227 2650 
2 1 -0.0564184 -0.0533084 -0.0385768 0.000656 -1.55142 0.0786649 2.26895 2650 
3547 1 -0.0574695 -0.0621302 -0.0374194 0.000423 -0.577579 0.439439 0.885223 2650 
1312 1 -0.0577869 -0.0621889 -0.0368003 4.2e-05 -1.03442 2.8695 4.79864 2650 
1805 1 -0.0588354 -0.0504817 -0.0352327 0.000423 -0.796236 0.249308 1.32964 2650 
2210 1 -0.0653993 -0.0526206 -0.019853 0.000656 -0.865153 -0.474331 2.84997 2650 
4036 1 -0.0661027 -0.0619745 -0.0193767 0.000116 2.44388 0.0952537 -8.33717 2650 
3375 1 -0.0668273 -0.046887 -0.0167076 0.000116 1.62298 0.398128 -6.4916 2650 
1256 1 -0.0673006 -0.0494211 -0.0131747 0.000423 -0.396925 -0.438858 2.02762 2650 
2803 1 -0.0683446 -0.0568337 -0.00841358 0.000116 -0.349105 3.08037 -3.1807 2650 
3088 1 -0.0684833 -0.0597918 -0.00360483 0.000423 -0.148556 0.0390904 2.8222 2650 
2928 1 -0.068809 -0.0493608 -0.00321835 0.000116 0.54837 1.91861 -11.7244 2650 
2920 1 -0.0687234 -0.0608971 0.00315483 0.000116 1.74447 0.327181 -13.3653 2650 
935 1 -0.068422 -0.0579468 0.0046231 0.000423 0.10902 -0.455396 1.6135 2650 
843 1 -0.0682522 -0.0450442 0.00930927 0.000116 0.043545 -0.0518999 0.319256 2650 
1912 1 -0.066858 -0.0494029 0.015263 0.000423 0.390229 -0.0655745 1.70936 2650 
1721 1 -0.0664306 -0.0517074 0.0182208 0.000116 -0.118004 -0.373611 -0.430225 2650 
2087 1 -0.0652577 -0.0490112 0.0222855 4.2e-05 1.10908 0.771503 3.24768 2650 
3785 1 -0.0625444 -0.0565045 0.0288656 0.000116 0.449135 -0.388707 0.973161 2650 
3933 1 -0.0616311 -0.0578811 0.0307673 0.000116 0.389328 0.215824 0.779877 2650 
167 1 -0.060557 -0.0524295 0.0328309 0.000116 -0.289079 0.316798 -0.53321 2650 
3034 1 -0.0541304 -0.0624787 0.0352767 0.000116 -2.88713 -0.519722 -10.9338 2650 
753 1 -0.0584184 -0.0503368 0.0365009 0.000116 0.565116 -0.837425 0.904448 2650 
295 1 -0.0570013 -0.061858 0.0386765 0.000116 -1.15417 -1.58167 -1.70237 2650 
3308 1 -0.0538863 -0.0504336 0.0424171 0.000423 1.5872 0.540629 2.01636 2650 
3038 1 -0.0491506 -0.0596953 0.0482622 0.000116 -0.744594 0.250166 -0.758301 2650 
816 1 -0.0288763 -0.055687 0.0622023 0.000423 -5.11024 0.301328 -2.37234 2650 
2813 1 -0.0248905 -0.058441 0.0642299 0.000116 3.06882 -1.52949 1.18923 2650 
1239 1 -0.00638555 -0.0623743 0.0682801 0.000423 -3.23863 -0.00273174 -0.302535 2650 
3134 1 -0.0105302 -0.0594677 0.0680745 0.000116 -3.13715 0.534811 -0.485275 2650 
992 1 -0.000689197 -0.0462907 0.0683427 0.000656 1.60479 0.0292573 0.0161834 2650 
3810 1 -0.00235844 -0.0586703 0.0688438 0.000116 -5.14079 -0.0613858 -0.176113 2650 
2086 1 -0.00422263 -0.012598 -0.0688286 4.2e-05 -3.19141 -0.19328 0.195793 2650 
2053 1 -0.00380832 -0.0031941 -0.0687788 0.000116 -1.99499 0.307891 0.110464 2650 
502 1 -0.00694863 -0.0202883 -0.0685065 0.000116 -1.14617 -0.147226 0.6299 2650 
2898 1 -0.00542572 -0.0187935 -0.0683631 0.000423 -3.07968 -0.209926 0.244423 2650 
2829 1 -0.00692093 -0.0174196 -0.0685356 0.000116 -2.37491 -0.298982 0.239825 2650 
2900 1 -0.00332626 -0.0159817 -0.0684974 0.000423 -3.20335 -0.267351 0.155556 2650 
3615 1 -0.00805139 -0.0145786 -0.0684864 4.2e-05 -3.05893 -0.0858188 0.359614 2650 
4260 1 -0.00864307 -0.0132155 -0.0683397 0.000116 -3.17084 -0.206146 0.401023 2650 
322 1 -0.00990274 -0.0105838 -0.0682433 4.2e-05 -3.16889 -0.19979 0.459835 2650 
2048 1 -0.00932076 -0.00986942 -0.0682506 0.000116 -3.17958 0.198836 0.434225 2650 
3018 1 -0.00874001 -0.00199329 -0.0680189 0.000423 -2.89605 0.305596 0.372125 2650 
2343 1 -0.0135927 -0.0281046 -0.0672175 0.000423 -2.18837 -0.0223505 0.44253 2650 
3989 1 -0.0113778 -0.00383726 -0.0676276 0.000423 -2.25017 0.0379004 0.378575 2650 
2685 1 -0.0160356 -0.0368197 -0.0666769 0.000423 -1.74032 0.489482 0.418542 2650 
3622 1 -0.0141278 -0.0310872 -0.0668701 0.000656 -1.95082 0.545558 0.412154 2650 
3724 1 -0.0179685 -0.0189793 -0.0665758 4.2e-05 12.4149 -0.677355 -3.35071 2650 
2681 1 -0.0150318 -0.012641 -0.0669104 0.000423 -3.08622 0.068508 0.693336 2650 
1408 1 -0.0175492 -0.00966404 -0.0666112 0.000116 -2.95254 0.00785737 0.777866 2650 
1208 1 -0.0173941 -0.000354662 -0.0667282 4.2e-05 0.501373 -1.28024 -0.130693 2650 
3366 1 -0.0192073 -0.0368603 -0.0661521 0.000116 1.08303 0.0692931 -0.314458 2650 
410 1 -0.0205625 -0.00815495 -0.0657435 0.000116 -1.92267 -0.273657 0.601349 2650 
394 1 -0.0215219 -0.0269765 -0.0654357 0.000116 -2.50602 -0.394313 0.824235 2650 
2858 1 -0.0210693 -0.0215607 -0.0650176 0.000656 -2.52174 0.171754 0.817185 2650 
4293 1 -0.0212455 -0.0197141 -0.0652041 0.000423 -1.43413 0.400616 0.467279 2650 
3782 1 -0.0243593 -0.0169144 -0.064106 0.000423 -2.999 -0.200903 1.13958 2650 
198 1 -0.0251011 -0.0103009 -0.0641479 0.000116 -2.71151 0.558659 1.06101 2650 
415 1 -0.0252732 -0.00588448 -0.0640803 0.000116 -3.05257 -0.131004 1.20393 2650 
1838 1 -0.0249683 -0.021847 -0.0635392 0.000116 -0.955727 -0.773678 -1.03444 2650 
2064 1 -0.0266518 -0.0171772 -0.0635193 0.000116 -2.86632 -0.130309 1.20267 2650 
1832 1 -0.0260208 -0.000688032 -0.0637804 0.000116 -1.10596 -0.0702941 0.451203 2650 
1655 1 -0.0264532 -0.0408076 -0.0630401 0.000656 2.35356 -0.046571 -1.24902 2650 
2821 1 -0.0280634 -0.0139973 -0.0629084 0.000116 -2.67882 -0.195182 1.19502 2650 
1878 1 -0.0275911 -0.0128712 -0.0625295 0.000656 -2.17799 0.34261 0.961037 2650 
3926 1 -0.0277293 -0.00929984 -0.0630564 0.000116 -2.21341 -0.295415 0.973355 2650 
3153 1 -0.0282507 -0.00530254 -0.0628245 0.000116 -2.92862 -0.121741 1.31693 2650 
4132 1 -0.0297886 -0.0435497 -0.0621101 0.000116 0.661646 -0.366363 -0.317332 2650 
164 1 -0.0286065 -0.038274 -0.0623267 0.000423 -2.05852 -0.170762 0.944811 2650 
917 1 -0.0295239 -0.0223156 -0.0618974 0.000423 -2.28523 0.0180347 1.09001 2650 
4309 1 -0.0297281 -0.0103552 -0.0617996 0.000423 -1.97038 0.43237 0.947829 2650 
1335 1 -0.0312388 -0.0227138 -0.0610499 0.000423 -2.35178 0.00389137 1.20339 2650 
4095 1 -0.0308665 -0.00513314 -0.0612389 0.000423 -2.36101 0.206255 1.19003 2650 
335 1 -0.0313301 -0.0242773 -0.0607423 0.000656 -2.41983 -0.0712997 1.24812 2650 
107 1 -0.0337957 -0.0234916 -0.0601087 4.2e-05 0.356407 1.5966 -0.200388 2650 
3329 1 -0.0328135 -0.0236374 -0.0602182 0.000423 -1.93267 -0.233926 1.05313 2650 
1323 1 -0.0319811 -0.0208563 -0.0604027 0.000656 -1.11824 -0.240266 0.703899 2650 
1964 1 -0.0332721 -0.00331624 -0.0603158 0.000116 -0.187523 -0.33929 0.103444 2650 
2738 1 -0.033627 -0.00310126 -0.0602005 4.2e-05 -1.42971 1.23428 0.625451 2650 
1958 1 -0.0350547 -0.0319894 -0.0592974 0.000116 -2.26315 0.446814 1.3379 2650 
3378 1 -0.0345967 -0.0199845 -0.0595659 0.000116 -2.65642 -0.617955 1.54289 2650 
3066 1 -0.0347174 -0.0129428 -0.0595811 4.2e-05 2.84112 -2.84276 -1.6555 2650 
3692 1 -0.0356681 -0.040354 -0.0589306 0.000116 4.50502 0.406089 -2.72669 2650 
1227 1 -0.0349336 -0.0220035 -0.0590135 0.000423 -2.08708 -0.146853 1.23547 2650 
1995 1 -0.0349783 -0.0121227 -0.0589871 0.000423 -2.76078 -0.217459 1.63709 2650 
4264 1 -0.0360451 -0.000899701 -0.0587874 4.2e-05 -2.68473 0.269603 1.64613 2650 
3708 1 -0.0337821 -0.000158289 -0.0589931 0.000116 -0.412799 -0.0801715 1.09937 2650 
3198 1 -0.0363789 -0.0437095 -0.0581337 0.000423 -1.1364 0.0351636 0.711136 2650 
3139 1 -0.0369517 -0.0072054 -0.0581343 0.000116 -2.72823 -0.145054 1.73413 2650 
3505 1 -0.0364744 -0.00416885 -0.0576281 4.2e-05 -0.875825 -0.0769205 4.04012 2650 
2612 1 -0.0378775 -0.0345126 -0.0575354 0.000116 -2.18805 0.141501 1.44047 2650 
3229 1 -0.0377646 -0.0210339 -0.0572432 0.000423 -2.01112 0.276814 1.32678 2650 
1468 1 -0.0382791 -0.0128173 -0.0569005 0.000423 -2.65388 -0.470691 1.78539 2650 
3260 1 -0.0378731 -0.00539224 -0.0575382 0.000116 -1.60583 -0.671413 1.057 2650 
2480 1 -0.0394807 -0.0354668 -0.0564473 0.000116 -1.99504 -1.08023 1.39538 2650 
3863 1 -0.0393552 -0.0222037 -0.0561616 0.000423 -1.91887 -0.155605 1.34465 2650 
121 1 -0.0385303 -0.0212553 -0.0564502 0.000656 -1.99027 0.0745274 1.35846 2650 
1544 1 -0.0385498 -0.0166331 -0.0564368 0.000656 -1.53888 0.0803099 1.05115 2650 
2396 1 -0.0407517 -0.0201432 -0.0555366 0.000116 -1.01051 -0.105391 0.741839 2650 
3261 1 -0.0397368 -0.0193569 -0.0558959 0.000116 -2.99479 1.73912 1.00988 2650 
2169 1 -0.0425029 -0.0363583 -0.0542081 0.000116 -0.859944 -0.548747 0.674256 2650 
827 1 -0.0430241 -0.00879819 -0.0537954 0.000116 -1.31295 0.312188 1.05006 2650 
3525 1 -0.0421416 -0.000691997 -0.0541021 0.000423 -2.44735 -0.064684 1.90631 2650 
1214 1 -0.0430015 -0.00764507 -0.0531232 0.000656 -2.217 0.0505264 1.79459 2650 
4016 1 -0.0444299 -0.0400466 -0.0526403 0.000116 -1.90242 -0.327068 1.60569 2650 
1058 1 -0.0450138 -0.0380745 -0.0521419 0.000116 -1.44346 -0.335082 1.24613 2650 
2060 1 -0.0444995 -0.0151551 -0.0525815 0.000116 0.444769 -0.742147 -0.376405 2650 
2967 1 -0.0439688 -0.00645342 -0.0523255 0.000656 -2.17086 0.396882 1.82416 2650 
1177 1 -0.0445253 -0.00549167 -0.0525597 0.000116 -2.53379 0.320656 2.14647 2650 
1901 1 -0.0437752 -0.00529528 -0.0527891 0.000423 -2.49388 0.431994 2.06804 2650 
432 1 -0.0456686 -0.0424035 -0.051668 4.2e-05 -0.786637 0.211577 0.695297 2650 
1290 1 -0.0460395 -0.0171222 -0.0512386 0.000116 -2.46087 -0.185747 2.21117 2650 
3470 1 -0.04652 -0.0160233 -0.0508027 0.000116 -2.2224 -0.25355 2.03505 2650 
4038 1 -0.0466985 -0.0137796 -0.0506387 0.000116 -2.22913 -0.17753 2.05568 2650 
1956 1 -0.0465867 -0.00243611 -0.0507415 0.000116 -2.49829 -0.513269 2.29372 2650 
2895 1 -0.0457962 -0.00101779 -0.0510457 0.000423 -2.51637 -0.0781409 2.25759 2650 
334 1 -0.0466359 -0.0207797 -0.0499782 0.000656 -2.02348 -0.367825 1.61565 2650 
4312 1 -0.0472111 -0.0124476 -0.04974 0.000423 -2.76144 0.0517228 2.62105 2650 
2487 1 -0.047666 -0.0222147 -0.049729 0.000116 -1.53782 0.218009 1.47402 2650 
3642 1 -0.0487866 -0.0341451 -0.0481957 0.000423 -1.62196 0.0491944 1.64185 2650 
2820 1 -0.0488126 -0.00219059 -0.0486041 0.000116 -1.79629 0.591852 1.80399 2650 
2148 1 -0.0493904 -0.0140331 -0.0480168 0.000116 5.30103 3.69958 -5.45268 2650 
1555 1 -0.0489057 -0.0114996 -0.0480748 0.000423 -1.62648 0.374852 1.65459 2650 
3055 1 -0.0497963 -0.00870429 -0.0475957 0.000116 -1.97007 -0.0302876 2.06116 2650 
3313 1 -0.0500877 -0.00630339 -0.046842 0.000423 -1.1816 0.413823 1.26347 2650 
1841 1 -0.0513042 -0.00960314 -0.0459663 0.000116 -2.02063 0.195622 2.25528 2650 
3688 1 -0.0534259 -0.0396679 -0.0434821 0.000116 -1.36286 -0.249207 1.67453 2650 
3385 1 -0.0544237 -0.0152854 -0.0422266 0.000116 0.064436 0.337682 -0.0830483 2650 
2251 1 -0.054504 -0.0371613 -0.0416206 0.000423 -1.59043 -0.0716619 2.08274 2650 
1016 1 -0.0545674 -0.0309839 -0.0415373 0.000423 -1.539 0.0948333 2.02177 2650 
4331 1 -0.0549459 -0.016264 -0.0415448 0.000116 -1.06038 0.527746 1.40243 2650 
2436 1 -0.0548719 -0.0104852 -0.0411342 0.000423 -1.41025 0.339175 1.88123 2650 
2806 1 -0.0555192 -0.0382571 -0.0407755 0.000116 -1.58481 -0.0197731 2.15784 2650 
1877 1 -0.0549006 -0.0299873 -0.0407078 0.000656 -1.49707 0.190534 2.01902 2650 
2670 1 -0.0552118 -0.0161611 -0.0406769 0.000423 -1.2406 0.255954 1.6839 2650 
1960 1 -0.0554435 -0.00204024 -0.0408784 0.000116 -0.689504 0.145934 0.935175 2650 
27 1 -0.0558816 -0.0338542 -0.0397517 0.000423 -1.49185 0.0575986 2.09719 2650 
106 1 -0.0563823 -0.00877607 -0.0397019 4.2e-05 -1.2988 0.932023 1.84448 2650 
1424 1 -0.0134972 -0.00490405 -0.0388101 4.2e-05 -2.05722 -0.158683 -5.94514 2650 
2800 1 -0.0561165 -0.00356059 -0.0394194 0.000423 -1.43324 0.501631 2.04033 2650 
2000 1 -0.0570197 -0.0083429 -0.0381013 0.000423 -1.22567 -0.3478 1.83425 2650 
3054 1 -0.0571401 -0.00105528 -0.0384712 0.000116 -0.978193 0.282295 1.45288 2650 
51 1 -0.0572798 -0.0323414 -0.037709 0.000423 -0.332628 -0.410181 0.50526 2650 
4082 1 -0.0580151 -0.00909328 -0.0365679 0.000423 -1.70973 -0.187342 2.7125 2650 
4128 1 -0.0586765 -0.0180128 -0.0360845 0.000116 -1.67777 0.107749 2.7282 2650 
791 1 -0.0597918 -0.0185459 -0.0335841 0.000423 -1.4507 -0.376934 2.58276 2650 
122 1 -0.0595929 -0.0103386 -0.0334648 0.000656 -1.28736 0.343185 2.29249 2650 
2269 1 -0.061162 -0.0099077 -0.0316897 0.000116 -1.38259 -0.205509 2.66844 2650 
588 1 -0.0607423 -0.00478068 -0.0318327 0.000423 -1.31515 0.35797 2.50953 2650 
2816 1 -0.060519 -0.000763087 -0.0318609 0.000116 -1.61169 -0.254217 0.0143095 2650 
392 1 -0.0613768 -0.0196974 -0.0312716 0.000116 -1.45857 -0.168418 2.86272 2650 
2788 1 -0.0618286 -0.0010912 -0.0296678 0.000423 -1.2183 -0.045851 2.53897 2650 
1670 1 -0.0623843 -0.0397827 -0.0284807 0.000423 -0.575219 0.58849 1.25996 2650 
2938 1 -0.0631418 -0.00811283 -0.0275343 0.000116 -1.28616 -0.17006 2.94943 2650 
1030 1 -0.063353 -0.0373991 -0.0262554 0.000423 -1.23657 -1.08455 2.98377 2650 
733 1 -0.0618836 -0.0259717 -0.0267647 0.000116 5.18287 -5.59388 -9.29885 2650 
2817 1 -0.00253394 -0.00390533 -0.0254635 0.000116 -0.325141 -0.102984 -3.3201 2650 
3168 1 -0.0644484 -0.0166412 -0.0243193 0.000116 -0.816182 -0.066763 2.16296 2650 
1116 1 -0.0650835 -0.0188231 -0.0216121 0.000423 -0.514886 0.198265 1.55055 2650 
2641 1 -0.0648354 -0.0111315 -0.0216236 0.000656 -0.797347 0.306977 2.39073 2650 
1560 1 -0.0654919 -0.021883 -0.020341 0.000423 -0.628818 0.31829 2.02461 2650 
476 1 -0.0655005 -0.0135237 -0.0203134 0.000423 -0.503093 0.680814 1.62222 2650 
2576 1 -0.0655257 -0.00763239 -0.020232 0.000423 -0.912603 -0.0740194 2.95566 2650 
1784 1 -0.0658334 -0.041784 -0.019207 0.000423 -0.421129 -0.280168 1.43772 2650 
3652 1 -0.0658023 -0.0213449 -0.0193135 0.000423 -0.577918 0.439749 1.96899 2650 
2593 1 -0.0650479 -0.0419882 -0.0186105 0.000116 0.0156416 -0.833356 -0.141825 2650 
3242 1 -0.0663124 -0.00063863 -0.0186465 0.000116 -0.711278 0.0973588 2.5295 2650 
1050 1 -0.0665027 -0.0027247 -0.0179559 0.000116 -0.0938804 -0.116435 0.347701 2650 
606 1 -0.000183 0.00265835 -0.016592 0.000116 0 -0.011753 0 2650 
188 1 -0.00133471 0.0107366 -0.0166432 0.000116 -0.0148612 0.0228045 0.00418427 2650 
2056 1 -0.00208849 0.0335071 -0.0165837 0.000116 -0.981273 -0.180118 0.175259 2650 
4010 1 -0.000880071 0.0347978 -0.0167183 0.000116 -0.0944465 0.099748 0.0197066 2650 
736 1 -0.00483779 0.000341164 -0.0159521 0.000116 -0.0307431 -0.0170391 0.0144389 2650 
30 1 -0.000571662 0.000298728 -0.0164074 0.000423 -0.0136125 -0.0214967 0.00834717 2650 
1679 1 -0.00373895 0.0030986 -0.0160722 0.000423 -0.00409429 0.0161755 0.0020216 2650 
2013 1 -0.00282046 0.00284185 -0.0160493 0.000423 -0.00154235 0.00221798 0.00156406 2650 
2283 1 -0.00349481 0.00339484 -0.0164533 0.000116 -0.0219007 -0.0112607 0.0150777 2650 
2301 1 -0.004222 0.00443135 -0.016305 4.2e-05 0 -0.011753 0 2650 
3121 1 -0.00195767 0.00512033 -0.0162004 0.000423 0.0292552 0.00121421 5.81941e-05 2650 
978 1 -0.00428228 0.00667293 -0.0162375 0.000116 0.0180122 -0.00353228 -0.00159853 2650 
3934 1 -0.001977 0.00742035 -0.016218 0.000116 0 -0.011753 0 2650 
1620 1 -0.00087641 0.0102459 -0.0158827 0.000116 0.0529387 0.0514306 -0.00503745 2650 
2713 1 -0.000748649 0.0114741 -0.0165602 0.000116 0.00037122 0.035974 0.00535071 2650 
2924 1 -0.00256732 0.0125973 -0.0161486 0.000116 -0.059039 0.0353164 0.00422158 2650 
3644 1 -0.00110892 0.0126959 -0.0162233 0.000423 -0.00432743 0.00711996 -0.0325914 2650 
4231 1 -0.000621795 0.017226 -0.0159383 0.000116 -0.0134934 0.0153003 0.0304581 2650 
2172 1 -0.00561362 -0.00157903 -0.0151978 0.000116 0.0554355 0.00150652 -0.0523356 2650 
509 1 -0.00720504 -5.01939e-06 -0.0150232 0.000116 0.0208826 0.00735409 0.00387183 2650 
150 1 -0.00558093 0.00230171 -0.0152847 0.000423 -0.0551283 0.0175519 0.0264808 2650 
3239 1 -0.00453192 0.00164804 -0.0151653 0.000116 -0.0248133 -0.00752354 0.0120924 2650 
3637 1 -0.00425542 0.00276071 -0.0154643 0.000423 -0.0121297 0.0118194 -0.00377228 2650 
2399 1 -0.002418 0.00287235 -0.015541 0.000116 0 -0.011753 0 2650 
1388 1 -0.00261808 0.0053025 -0.0152314 0.000116 -0.039288 0.0021603 0.0169103 2650 
2793 1 -0.00138267 0.0054987 -0.0154136 0.000423 0.0182843 0.0982975 0.0184189 2650 
2438 1 -0.00568301 0.00701394 -0.0151422 0.000423 -0.00364828 0.010897 0.00465106 2650 
1219 1 -8.56562e-05 0.00808748 -0.0153767 0.000656 0.0135691 0.0227116 0.00865487 2650 
3830 1 -0.006879 0.00897235 -0.015411 4.2e-05 0 -0.011753 0 2650 
233 1 -0.00470599 0.00941497 -0.0157276 0.000423 0.0114684 -0.00558491 0.0116559 2650 
86 1 -0.00260761 0.00935216 -0.0150329 0.000116 -0.0196067 0.0126222 0.000798653 2650 
2969 1 -0.00175177 0.00894289 -0.015093 0.000656 -0.00770999 0.0181957 -4.77754e-05 2650 
3177 1 -0.000796051 0.00876966 -0.0156095 4.2e-05 0.00917698 -0.00185525 -0.00666376 2650 
1483 1 -0.000333467 0.00911368 -0.0155992 0.000423 -0.000704646 0.0104465 -0.00757083 2650 
1617 1 -0.00224285 0.0099167 -0.0157333 0.000116 0.0304013 0.00375314 0.0183235 2650 
289 1 -0.00235132 0.00970716 -0.0156392 0.000116 -0.0188061 -0.000940224 -0.0594549 2650 
938 1 -0.00108091 0.0100446 -0.0154444 0.000116 -0.00972467 -0.0045752 -0.00099221 2650 
371 1 -0.000454481 0.0100197 -0.0155325 0.000423 -0.001438 0.00792253 -0.00823014 2650 
3007 1 -0.00186957 0.0111931 -0.0151118 0.000423 -0.0135196 -0.00505473 -0.0280609 2650 
1173 1 -0.00585034 0.0481789 -0.0156711 0.000116 -0.133465 0.347815 0.0527719 2650 
661 1 -0.0667894 -0.0198586 -0.0145046 0.000656 -0.439616 0.126984 2.02432 2650 
2666 1 -0.00765859 -0.00212709 -0.0145803 0.000423 0.0434652 -0.0093168 0.0067076 2650 
186 1 -0.000661214 -0.00224816 -0.0144257 0.000116 -0.0548922 -0.0357269 0.0179676 2650 
1053 1 -0.007469 -0.00096965 -0.014946 0.000116 0 -0.011753 0 2650 
623 1 -0.00678306 0.000203335 -0.0144151 0.000116 -0.0192086 -0.00896372 0.0230222 2650 
1991 1 -0.00605293 0.0004324 -0.0148681 0.000656 -0.0195897 -0.00213105 0.00864983 2650 
676 1 -0.00362475 0.00207034 -0.0145414 0.000423 -0.0247905 0.00447638 0.0282863 2650 
220 1 -0.00354849 0.00287177 -0.0145549 4.2e-05 0.00197382 0.00663681 0.00671825 2650 
3587 1 -0.00669373 0.00328941 -0.0143389 0.000116 -0.0152422 -0.0151231 -0.00566973 2650 
3365 1 -0.002315 0.00529835 -0.014552 0.000116 0 -0.011753 0 2650 
2918 1 -0.00788416 0.00565556 -0.0144331 0.000116 0.0149777 0.0131491 0.0124233 2650 
2313 1 -0.004376 0.00677094 -0.014703 0.000656 0.0121795 0.0249345 0.010824 2650 
963 1 -0.0068226 0.00714179 -0.0148277 0.000116 -0.0190241 0.000952492 0.0269479 2650 
2222 1 -0.000669178 0.00778338 -0.0142181 0.000423 -0.00549102 -0.00568171 -0.00117535 2650 
581 1 -0.00562912 0.00824741 -0.0145173 0.000423 -0.000593495 -0.0101803 -0.00423903 2650 
1827 1 -0.00720006 0.00983508 -0.014652 0.000116 0.0104858 0.011057 0.025833 2650 
1228 1 -0.00154699 0.0102788 -0.0149908 0.000423 -0.0026547 0.0243513 0.000515369 2650 
3669 1 -0.00016352 0.010356 -0.0148067 0.000423 0.00311727 -0.00583333 -0.00141597 2650 
2643 1 -0.00296105 0.0282063 -0.0145057 0.000656 -0.0823633 0.0688822 0.0201377 2650 
352 1 -0.0044653 0.0391768 -0.0146997 0.000423 0.0736471 -0.159457 0.0441779 2650 
4245 1 -0.0074097 0.0474023 -0.0146072 0.000116 -0.108278 0.145073 0.0575558 2650 
694 1 -0.00207973 0.0543272 -0.0142624 0.000423 0.0939046 0.181508 -0.117107 2650 
835 1 -0.0674009 -0.0236709 -0.0142179 0.000116 1.35734 1.96944 -6.43456 2650 
1669 1 -0.0672462 -0.0134176 -0.0134498 0.000423 -0.3411 0.284961 1.70543 2650 
2066 1 -0.0675111 -0.00849861 -0.0136848 0.000116 -0.372216 1.59794 1.83626 2650 
800 1 -0.00944085 -0.00390051 -0.0136805 0.000423 -0.167592 -1.06168 -0.107446 2650 
2827 1 -0.00592913 -0.00213847 -0.014181 0.000116 -0.0201753 -0.0226203 0.0017234 2650 
269 1 -0.000182251 -0.00186989 -0.0140125 0.000423 -0.0067037 -0.0325502 -0.00931701 2650 
1022 1 -0.00321144 -0.00100984 -0.0140829 0.000423 -0.00789737 0.00635626 0.0363748 2650 
2332 1 -0.00478622 -0.000185343 -0.0139491 0.000423 -0.0114447 -0.00779769 0.00753018 2650 
2922 1 -0.00697972 0.00141895 -0.0141446 0.000116 -0.00925852 -0.000802711 0.00675368 2650 
545 1 -0.00181096 0.000954251 -0.0137895 4.2e-05 0.0164356 0.0574887 0.091312 2650 
2512 1 -0.0087402 0.00353895 -0.0135739 0.000116 0.018779 -0.0192413 0.00230208 2650 
1171 1 -0.00814751 0.00373452 -0.0137017 0.000116 0.0131753 -0.0110464 0.0150896 2650 
1032 1 -0.00708263 0.00355439 -0.0139892 0.000423 0.0299121 -0.00820922 0.0127278 2650 
2913 1 -0.00836538 0.00581746 -0.0135189 0.000116 -0.0140945 -0.0228944 -0.00540615 2650 
3950 1 -0.00711529 0.00603355 -0.0134461 0.000656 0.000588401 -0.011021 0.0254098 2650 
4227 1 -0.000612148 0.0062233 -0.0137741 0.000116 0.00143204 -0.0228975 -0.0290312 2650 
2322 1 -0.00875434 0.006776 -0.0134829 0.000656 -0.0104342 -0.0114448 0.00247266 2650 
1288 1 -0.002467 0.00660135 -0.014044 0.000116 0 -0.011753 0 2650 
3515 1 -0.00763205 0.00743751 -0.0140018 0.000656 -0.00997791 -0.00948519 0.00142522 2650 
1618 1 -0.00954744 0.00792678 -0.0137615 0.000116 -0.0183777 -0.0158905 0.00601569 2650 
1237 1 -0.00941682 0.00853751 -0.013503 0.000423 0.0145401 0.0144406 -0.00797436 2650 
4190 1 -0.00870588 0.00863266 -0.0139699 0.000423 -0.007929 0.00210755 0.00547245 2650 
4257 1 -0.00780972 0.00825353 -0.0139222 0.000116 0.0101268 -0.0416798 0.0036163 2650 
1769 1 -0.00701756 0.00863938 -0.0137088 0.000656 -0.0120334 -0.000961407 -0.0081542 2650 
1476 1 -0.00705574 0.00979407 -0.013435 0.000423 -0.00430855 0.00299287 4.96068e-07 2650 
1409 1 -0.00044 0.0103813 -0.013868 0.000116 0 -0.011753 0 2650 
478 1 -0.00707638 0.015126 -0.0140126 0.000423 0.0184535 0.00116934 0.020279 2650 
1500 1 -0.0676154 -0.0386353 -0.0131598 0.000116 -0.251851 -0.608062 1.29402 2650 
115 1 -0.0671518 -0.0313404 -0.0127219 0.000656 -0.467584 0.297755 2.46811 2650 
1174 1 -0.0675784 -0.0178251 -0.0133486 0.000116 -0.452202 -0.00602261 2.28931 2650 
1130 1 -0.0673493 -0.0164538 -0.0129235 0.000423 -0.434495 0.12846 2.26431 2650 
235 1 -0.0673517 -0.0144191 -0.012911 0.000423 -0.224655 0.671772 1.17193 2650 
1514 1 -0.0644205 -0.00773817 -0.0131953 0.000116 -0.571835 -0.305549 2.95637 2650 
222 1 -0.00297205 -0.000911569 -0.0129805 0.000656 -0.0154066 -0.0201332 0.053235 2650 
3551 1 -0.00712676 0.00048261 -0.0127771 0.000423 -0.015336 0.00523015 0.00637389 2650 
4126 1 -0.00588654 0.000491516 -0.013092 0.000116 -0.0261531 0.0084042 0.00402279 2650 
2525 1 -0.004063 0.00082835 -0.013231 4.2e-05 0 -0.011753 0 2650 
2609 1 -0.00886 0.00236835 -0.013248 0.000116 0 -0.011753 0 2650 
3733 1 -0.00747212 0.00185203 -0.0130987 0.000656 -0.023221 0.0173181 0.0154659 2650 
3477 1 -0.00642003 0.00197772 -0.012678 0.000116 0.0616358 -0.0139442 -0.0219299 2650 
2619 1 -0.005851 0.00164435 -0.012854 0.000116 0 -0.011753 0 2650 
3880 1 -0.010277 0.00256035 -0.012913 0.000423 0 -0.011753 0 2650 
4165 1 -0.00517484 0.00273197 -0.0133938 0.000656 -6.3943e-05 -0.032131 0.00827285 2650 
3917 1 -0.003984 0.00312935 -0.012703 0.000116 0 -0.011753 0 2650 
2059 1 -0.003583 0.00333835 -0.012756 0.000116 0 -0.011753 0 2650 
3316 1 -0.00915957 0.00405351 -0.0126664 0.000423 -0.00545668 -0.0184265 -0.00877661 2650 
1192 1 -0.00587401 0.00442721 -0.0130279 0.000116 -0.0160738 0.0171838 -0.0228619 2650 
2912 1 -0.00554234 0.00541493 -0.013194 0.000116 0.00196064 0.0151142 0.00117299 2650 
3446 1 -0.00184808 0.00503944 -0.0127895 0.000423 0.014297 -0.016402 -0.00312272 2650 
4078 1 -0.0100186 0.00586789 -0.0126908 0.000423 -0.0247982 -0.000713085 -0.00713512 2650 
1427 1 -0.002948 0.00566935 -0.013376 4.2e-05 0 -0.011753 0 2650 
2344 1 -0.000677612 0.00628495 -0.0131653 0.000423 0.00575909 -0.0231993 -0.0217047 2650 
104 1 -0.00327923 0.00654901 -0.0126559 4.2e-05 -0.00674979 0.0150481 0.0116551 2650 
445 1 -0.00971067 0.00714669 -0.0126631 0.000656 -0.00165338 -0.00352819 -0.00923757 2650 
3259 1 -0.00892676 0.00721587 -0.0128711 0.000116 0.00136236 -0.0113258 0.00321419 2650 
1795 1 -0.00884159 0.00774696 -0.0129106 0.000423 -0.00608265 -0.00901071 0.0041551 2650 
450 1 -0.00590831 0.00757683 -0.0128859 0.000656 0.0109678 0.0466598 0.00707816 2650 
1250 1 -0.00826002 0.00811939 -0.0134209 0.000423 -0.00886215 -0.00669002 0.000806173 2650 
205 1 -0.000744 0.00838535 -0.01334 0.000116 0 -0.011753 0 2650 
3847 1 -0.00953972 0.00934401 -0.0127355 0.000656 0.00223772 0.0142639 -0.00523739 2650 
2483 1 -0.00822219 0.00881976 -0.0129617 0.000116 0.0222317 -0.00887276 -0.000700143 2650 
2453 1 -0.00605724 0.00915037 -0.0126374 0.000423 -0.0010049 -0.00249977 -0.0101278 2650 
2092 1 -0.00502397 0.0090409 -0.0132463 0.000656 -0.0434988 0.00182259 -0.0432859 2650 
2781 1 -0.00584972 0.0100776 -0.0127407 0.000423 -0.00442793 0.0056962 -0.0279247 2650 
1986 1 -0.0026069 0.0104404 -0.0133085 0.000656 0.00762539 0.0149956 0.0116892 2650 
508 1 -0.0108295 0.0111374 -0.0128178 0.000116 -0.0281885 0.0711476 0.0146726 2650 
1775 1 -0.00823157 0.0111659 -0.0130606 0.000423 -7.29146e-05 -0.011186 -0.000346901 2650 
949 1 -0.00736136 0.0123312 -0.0130402 0.000116 -0.0176518 0.0277962 -0.00593252 2650 
1802 1 -0.00387214 0.0124392 -0.0126483 0.000423 0.00500259 -0.000364755 -0.0111755 2650 
3632 1 -0.0105459 0.0128184 -0.012759 0.000423 -0.0152052 0.000760494 0.0188393 2650 
3106 1 -0.00957922 0.0131335 -0.0130441 0.000423 -0.042507 0.0242048 -0.0146805 2650 
959 1 -0.00972012 0.015516 -0.0129283 0.000116 -0.0124197 0.0522228 0.0447896 2650 
1143 1 -0.000454067 0.0150388 -0.0128426 0.000423 0.0070315 0.0110531 -0.00616027 2650 
142 1 -0.00682763 0.0249248 -0.0128771 0.000423 -0.0600809 0.0373384 0.0570253 2650 
1195 1 -0.00994784 0.0253826 -0.0132518 0.000116 0.0557766 0.0782116 -0.0138054 2650 
671 1 -0.0672644 -0.0171942 -0.0121123 0.000656 -0.403204 0.0994991 2.23914 2650 
468 1 -0.0674859 -0.0149685 -0.0121904 0.000423 -0.197827 0.560556 1.09523 2650 
4097 1 -0.00856018 -0.00251782 -0.0121725 0.000423 0.0222564 -0.0142204 -0.0225559 2650 
1763 1 -0.001143 -0.00248565 -0.012442 0.000656 0 -0.011753 0 2650 
2468 1 -0.00580609 -0.00105223 -0.012121 0.000423 -0.0504222 0.0211365 0.000191011 2650 
3191 1 -0.00811309 -0.000204813 -0.0126115 0.000656 -0.0197381 0.00193499 -0.0014393 2650 
1422 1 -0.003881 -0.00063965 -0.012349 4.2e-05 0 -0.011753 0 2650 
1799 1 -0.00322712 0.00016454 -0.0120546 0.000423 7.10678e-05 -0.0118308 4.63239e-05 2650 
3956 1 -0.0090706 0.00111217 -0.0123264 0.000656 -0.000640959 -0.0104529 -0.000368355 2650 
541 1 -0.00699308 0.00116246 -0.0122508 4.2e-05 -0.0143735 0.00954058 0.00936495 2650 
3389 1 -0.010415 0.00162635 -0.012026 0.000116 0 -0.011753 0 2650 
3201 1 -0.00657875 0.00243329 -0.0119096 0.000423 -0.00608722 0.0216696 0.0089772 2650 
3826 1 -0.009208 0.00352135 -0.012552 0.000116 0 -0.011753 0 2650 
411 1 -0.0108467 0.00422018 -0.0120944 0.000116 -0.00787832 -0.00657823 -8.20909e-05 2650 
3787 1 -0.00654605 0.0042463 -0.0121485 0.000116 -0.0024271 -0.00223267 -0.0195234 2650 
708 1 -0.00233409 0.00408591 -0.012248 0.000423 0.0112279 -0.00894022 0.00239788 2650 
2194 1 -0.00204519 0.0047107 -0.0123593 4.2e-05 0.00491046 0.00111596 0.00228026 2650 
3221 1 -0.00971623 0.00534048 -0.0120782 0.000423 -0.0278004 -0.00220221 -0.00187567 2650 
1261 1 -0.00745658 0.00484068 -0.0125086 0.000423 -0.000156549 -0.00211811 -0.00151993 2650 
1645 1 -0.00686468 0.00538377 -0.0119585 4.2e-05 0.0229874 0.010571 0.00467637 2650 
3322 1 -0.00343122 0.00517495 -0.0123308 0.000423 0.00110678 0.0140263 0.0123959 2650 
3362 1 -0.00264585 0.00497473 -0.0125005 0.000116 0.000350619 -0.00253681 -0.00404217 2650 
763 1 -0.00592859 0.00574382 -0.0119509 4.2e-05 -0.0107376 -0.0192397 -0.014763 2650 
3030 1 -0.001189 0.00578435 -0.012596 0.000116 0 -0.011753 0 2650 
2957 1 -0.000648384 0.00559975 -0.0122716 4.2e-05 0.0205169 0.0248349 -0.000218849 2650 
3364 1 -0.00656175 0.00650824 -0.0118581 0.000116 -0.00179506 0.0163753 -0.0232219 2650 
3702 1 -0.00214723 0.006577 -0.0118959 0.000116 0.051128 0.0233268 -0.0546565 2650 
4318 1 -0.00857637 0.00736348 -0.012204 0.000423 0.000766946 -0.00630486 0.00294055 2650 