ITEM: TIMESTEP
4988676
ITEM: NUMBER OF ATOMS
4360
ITEM: BOX BOUNDS ff ff ff
-0.15 0.15
-0.15 0.06
-0.15 0.15
ITEM: ATOMS id type x y z radius vx vy vz density 
758 1 -0.00188012 -0.0573023 -0.0688586 0.000116 13.5831 0.282656 -0.370882 2650 
2855 1 -0.00436176 -0.0484912 -0.0688199 4.2e-05 -0.411263 0.338512 0.0260656 2650 
1417 1 -0.0111294 -0.0522743 -0.0679791 0.000116 -2.17557 -0.153673 0.356181 2650 
2465 1 -0.00628207 -0.0464202 -0.0682897 0.000423 -2.05785 0.136887 0.189305 2650 
868 1 -0.0149743 -0.0530081 -0.0672368 0.000116 -2.05513 -1.98883 0.457698 2650 
1591 1 -0.0109231 -0.0481782 -0.0677026 0.000423 -2.08458 0.0236664 0.336325 2650 
169 1 -0.0213312 -0.054316 -0.0654981 0.000116 0.968784 -0.940534 -0.31551 2650 
632 1 -0.0244206 -0.0492938 -0.0644101 0.000116 0.425483 0.769368 -0.161318 2650 
3708 1 -0.0237971 -0.0617454 -0.0621298 0.000116 4.56634 0.464861 0.0026946 2650 
1535 1 -0.0417325 -0.0461211 -0.0548964 4.2e-05 5.01686 0.527987 -3.81384 2650 
3425 1 -0.0442905 -0.0571584 -0.0523575 0.000423 -2.2426 -1.02959 1.89707 2650 
1996 1 -0.0451319 -0.0488115 -0.0516339 0.000423 -1.97905 0.189889 1.72984 2650 
734 1 -0.0440336 -0.0625641 -0.0469268 0.000116 4.26764 0.00299449 -5.93424 2650 
4316 1 -0.0497845 -0.0584719 -0.0471642 0.000423 -1.83331 -0.498135 1.93517 2650 
1781 1 -0.0572815 -0.0484765 -0.0377065 0.000423 -1.09039 0.0542555 1.65646 2650 
1961 1 -0.0583603 -0.0602117 -0.0365936 0.000116 1.02621 0.723461 -1.63662 2650 
669 1 -0.0577671 -0.0491385 -0.0365264 0.000656 -1.60172 0.454094 2.53315 2650 
1197 1 -0.0594981 -0.0476495 -0.0347128 0.000116 -1.98169 1.16473 3.41851 2650 
1051 1 -0.0605552 -0.0586225 -0.0328343 0.000116 -0.81482 -0.442284 1.50274 2650 
2237 1 -0.0625484 -0.0506348 -0.0281186 0.000423 -1.08108 0.59486 2.40481 2650 
418 1 -0.0651505 -0.0519299 -0.0223705 0.000116 1.99395 -0.926992 -5.80705 2650 
4037 1 -0.0656644 -0.0520763 -0.020814 0.000116 1.35097 -1.0468 -4.32016 2650 
19 1 -0.065575 -0.0588808 -0.0200716 0.000423 -0.880452 -0.521173 2.87649 2650 
4150 1 -0.0661821 -0.052919 -0.0191036 0.000116 0.541723 -0.96535 -1.87674 2650 
2790 1 -0.0667763 -0.04596 -0.0156167 0.000423 -0.552076 -0.344476 2.36065 2650 
2201 1 -0.0668978 -0.0601964 -0.0139959 0.000656 0.284597 0.801161 -1.36028 2650 
51 1 -0.0676615 -0.0586831 -0.0111742 0.000423 0.176948 1.69927 -1.07145 2650 
2833 1 -0.0677353 -0.0585657 -0.00977985 0.000116 -0.0313284 1.76998 0.335549 2650 
4288 1 -0.0683436 -0.062377 -0.005678 0.000423 1.21411 -1.5097e-06 -14.6148 2650 
2557 1 -0.068575 -0.0467939 0.000646263 0.000423 0.0154176 0.0193886 1.63596 2650 
3692 1 -0.068878 -0.0571641 0.000917896 0.000116 -0.00721538 0.26046 -0.541434 2650 
3331 1 -0.0683635 -0.0547934 0.00542103 0.000423 0.226812 -0.0798435 2.86028 2650 
2083 1 -0.068663 -0.0560984 0.00637181 4.2e-05 0.0629364 0.212356 0.678206 2650 
1520 1 -0.0681432 -0.0510879 0.0100761 0.000116 -1.00226 0.0276507 -6.77814 2650 
534 1 -0.0656303 -0.0490682 0.0209211 0.000116 1.01332 3.15058 3.17883 2650 
1239 1 -0.0592422 -0.0542447 0.0345444 0.000423 0.756921 -0.196234 1.29809 2650 
2667 1 -0.0591672 -0.0463669 0.0346728 0.000423 1.53479 -1.1816 2.61903 2650 
343 1 -0.0573064 -0.0521444 0.0376687 0.000423 1.40987 0.093065 2.14487 2650 
689 1 -0.0549297 -0.0599245 0.0410571 0.000423 1.57405 -0.262007 2.10589 2650 
3957 1 -0.0540212 -0.0568324 0.0418678 0.000656 1.19189 0.263843 1.53787 2650 
2803 1 -0.0476456 -0.0600913 0.0497486 0.000116 -1.29912 -0.0285246 -1.2442 2650 
1463 1 -0.0441622 -0.0494054 0.0524658 0.000423 1.8628 -0.282129 1.56798 2650 
2274 1 -0.0422931 -0.0567975 0.054372 0.000116 -1.41651 -0.825978 -1.10183 2650 
2612 1 -0.0414887 -0.0543904 0.0543795 0.000116 1.66471 -1.34887 0.88027 2650 
3850 1 -0.0422983 -0.0529883 0.0539796 0.000423 0.854106 0.829093 0.669242 2650 
3840 1 -0.039276 -0.0576304 0.0559339 0.000656 2.05813 -0.28535 1.44519 2650 
4019 1 -0.0320588 -0.0468872 0.0609693 0.000116 2.09008 0.128901 1.099 2650 
1601 1 -0.0297197 -0.0510195 0.0621431 0.000116 -6.87467 -0.179256 -3.28778 2650 
3440 1 -0.0300944 -0.0452753 0.061622 0.000423 1.59526 0.450682 0.779081 2650 
747 1 -0.0281134 -0.0625532 0.0625882 0.000116 -1.38936 0.214451 1.43725 2650 
893 1 -0.0275492 -0.050336 0.0628012 0.000423 1.39144 -0.200968 0.610389 2650 
1270 1 -0.0272023 -0.0549107 0.0632855 0.000116 0.0998419 -0.57955 0.0429155 2650 
3357 1 -0.0185012 -0.051729 0.066353 0.000116 3.69367 0.487746 1.02991 2650 
3276 1 -0.00625424 -0.0527055 0.0685996 0.000116 -1.4919 0.545294 -0.136017 2650 
4133 1 -0.0099846 -0.0482184 0.0681567 0.000116 -0.0286331 0.139093 -0.0041946 2650 
1056 1 -0.00646665 -0.0473663 0.06842 0.000116 -4.22311 -1.82912 2.76999 2650 
4020 1 -0.00477593 -0.0544656 0.0687184 0.000116 2.21585 0.257687 0.154002 2650 
3946 1 -7.11793e-05 -0.0512881 0.068958 4.2e-05 -9.69311 0.28354 -0.0100045 2650 
4139 1 -0.00312836 -0.0432398 -0.0687372 0.000116 -1.54895 -3.68013 -0.139448 2650 
2965 1 -0.00493661 -0.0312234 -0.0687671 4.2e-05 7.88745 -3.53078 -0.739722 2650 
3391 1 -0.00337091 -0.0188352 -0.0688756 4.2e-05 -3.19614 -0.0435609 0.156425 2650 
3066 1 -0.00202793 -0.0121275 -0.0689282 4.2e-05 -1.62343 -0.266717 0.0477627 2650 
3248 1 -0.00511635 -0.00642289 -0.0686939 0.000116 -3.20098 -0.15536 0.23841 2650 
1655 1 -0.00184669 -0.0446708 -0.0683212 0.000656 -1.44792 0.0200567 0.0391365 2650 
3875 1 -0.00424417 -0.0332214 -0.0684466 0.000423 -2.50244 0.10976 0.155169 2650 
2862 1 -0.00529551 -0.0291985 -0.0681408 0.000656 -2.8415 0.0587719 0.220825 2650 
3204 1 -0.000782841 -0.027523 -0.0685736 0.000423 -2.53357 0.0907034 0.0289234 2650 
1202 1 -0.0107215 -0.0230423 -0.0681194 4.2e-05 -1.78809 0.110871 0.281433 2650 
1020 1 -0.00550447 -0.020617 -0.0683577 0.000423 -1.22595 0.207998 0.141688 2650 
1587 1 -0.00230022 -0.0202398 -0.0685427 0.000423 -2.53665 -0.0847789 0.233046 2650 
1957 1 -0.00540862 -0.0191141 -0.0686715 0.000116 -3.30858 0.0227652 0.260586 2650 
2605 1 -0.00822279 -0.0150316 -0.0683916 0.000116 -3.67642 0.0262002 0.44202 2650 
1343 1 -0.00726618 -0.0113514 -0.0681921 0.000423 -3.18009 -0.238559 0.338854 2650 
1818 1 -0.0129467 -0.0185784 -0.0676565 0.000116 -3.14608 0.0892562 0.602031 2650 
838 1 -0.0139764 -0.00728037 -0.0674513 0.000116 -3.14688 -0.171363 0.652055 2650 
1598 1 -0.0147395 -0.002706 -0.0672887 0.000116 -1.17705 -0.169118 0.257831 2650 
1537 1 -0.0134102 -0.00239225 -0.0676415 4.2e-05 -3.87478 0.0342631 0.768191 2650 
3422 1 -0.0173527 -0.0234008 -0.0663463 0.000423 -1.98306 -0.192686 0.518663 2650 
1282 1 -0.0169361 -0.0125405 -0.0667697 0.000116 -3.1053 -0.227263 0.787661 2650 
2000 1 -0.0194428 -0.0204019 -0.0657374 0.000423 0.42412 -0.0101326 0.45287 2650 
2087 1 -0.0212692 -0.0183981 -0.0655959 4.2e-05 -0.388158 -0.47183 0.125859 2650 
1363 1 -0.0180431 -0.0130745 -0.0661619 0.000423 -3.10158 -0.392069 0.845837 2650 
3040 1 -0.019014 -0.00573047 -0.0662079 0.000116 -1.54844 1.83315 0.444691 2650 
1380 1 -0.0224533 -0.0413991 -0.0651221 0.000116 10.9999 1.67789 -3.79265 2650 
844 1 -0.021523 -0.0353742 -0.0654353 0.000116 -2.07561 -0.373394 0.68271 2650 
4320 1 -0.0205211 -0.0335433 -0.0654357 0.000423 -2.25133 -0.0417089 0.706033 2650 
3964 1 -0.0221536 -0.0284022 -0.0649012 0.000423 -2.36875 -0.040963 0.808554 2650 
1647 1 -0.0217293 -0.0148523 -0.065445 4.2e-05 -2.59788 -0.194325 0.862559 2650 
2738 1 -0.0237262 -0.0105811 -0.0647478 4.2e-05 -3.03156 -0.236317 1.11089 2650 
146 1 -0.0243265 -0.0169876 -0.0641184 0.000423 -2.94795 -0.210293 1.11845 2650 
3734 1 -0.0232789 -0.0166392 -0.0642597 0.000656 -2.95275 -0.19617 1.06968 2650 
378 1 -0.0233653 -0.00948223 -0.0644749 0.000423 -2.63307 0.0580896 0.954208 2650 
2247 1 -0.0257915 -0.028921 -0.0635433 0.000423 -2.22998 0.0755582 0.905123 2650 
3522 1 -0.0251928 -0.0241761 -0.063783 0.000423 -1.47705 -0.276376 0.583399 2650 
3330 1 -0.0267038 -0.0175005 -0.0631653 0.000423 -2.43821 0.477221 1.03078 2650 
3516 1 -0.0247074 -0.00780377 -0.0637241 0.000656 -2.64936 0.335715 1.02722 2650 
3831 1 -0.0290345 -0.0325268 -0.0625477 4.2e-05 10.0403 0.869686 -4.66069 2650 
2578 1 -0.0278384 -0.0288105 -0.0626736 0.000423 -2.57666 0.274848 1.1445 2650 
312 1 -0.0279072 -0.00119664 -0.0629779 0.000116 -2.6333 -0.0627384 1.16689 2650 
3047 1 -0.0163551 -0.0208917 -0.0613639 0.000116 11.8112 -0.149922 -0.7385 2650 
1813 1 -0.032355 -0.0342797 -0.0604658 0.000423 -2.46705 -0.380669 1.32011 2650 
55 1 -0.0323729 -0.0261248 -0.0604561 0.000423 -1.75776 -0.108288 0.941241 2650 
2672 1 -0.0320631 -0.0106278 -0.0606211 0.000423 -2.82532 -0.224228 1.49434 2650 
4177 1 -0.0345252 -0.0337246 -0.0592534 0.000423 -2.34911 -0.361808 1.36876 2650 
3974 1 -0.0337405 -0.0290591 -0.0597037 0.000423 -1.86078 -0.639756 1.05159 2650 
2920 1 -0.0344631 -0.0278452 -0.0596432 0.000116 -2.6995 -0.214952 1.55983 2650 
4360 1 -0.0364586 -0.0328629 -0.0584448 0.000116 -3.19102 -0.369568 1.9906 2650 
2386 1 -0.037147 -0.0163958 -0.0580097 0.000116 -2.69858 -0.173892 1.72805 2650 
1922 1 -0.0360867 -0.0140286 -0.0583156 0.000423 -2.72567 -0.198848 1.68669 2650 
3426 1 -0.0375368 -0.0278917 -0.0573929 0.000423 -2.57528 -0.603991 1.68432 2650 
482 1 -0.041445 -0.0278474 -0.0546375 0.000423 -1.505 0.457004 1.14161 2650 
4017 1 -0.041885 -0.00301719 -0.054687 0.000116 0.118358 -0.185968 -0.0906506 2650 
786 1 -0.0427018 -0.00880056 -0.053661 0.000423 -2.49205 -0.196056 1.9831 2650 
2060 1 -0.0423376 -0.0211746 -0.0533173 0.000116 3.20558 -0.236796 -0.23926 2650 
3024 1 -0.0437555 -0.019498 -0.0532023 0.000116 -2.47861 -0.146954 2.0385 2650 
4373 1 -0.0418435 -0.00474888 -0.0529893 4.2e-05 -3.86346 -0.0982829 -0.118348 2650 
4250 1 -0.0443287 -0.0385803 -0.0527255 0.000116 -0.536546 3.30204 0.450109 2650 
1619 1 -0.0444512 -0.00713167 -0.0526224 0.000116 -1.68057 -0.672313 1.41961 2650 
3337 1 -0.0396329 -0.00666918 -0.0521443 0.000423 -2.9575 -0.157155 1.19508 2650 
4021 1 -0.0468235 -0.00693548 -0.0505231 0.000116 -0.2104 0.963043 0.194993 2650 
518 1 -0.0453119 -0.00637133 -0.0510999 0.000116 -0.161735 -0.199554 4.26424 2650 
3482 1 -0.0467033 -0.00529113 -0.0506343 0.000116 -3.07569 -0.200523 2.83691 2650 
2421 1 -0.0462042 -0.0330894 -0.0503625 0.000656 -2.15298 0.00169253 1.97521 2650 
1945 1 -0.0476444 -0.00777583 -0.0497497 0.000116 -2.18973 -0.0954347 2.09707 2650 
2112 1 -0.0482719 -0.0209823 -0.0487109 0.000423 -2.01057 -0.401644 1.97583 2650 
1760 1 -0.0492506 -0.00209921 -0.0482658 4.2e-05 -3.32277 0.0583726 3.39057 2650 
4303 1 -0.0489764 -0.0260689 -0.0480027 0.000423 -1.37113 -0.0994049 1.39894 2650 
107 1 -0.0290368 -0.0203551 -0.047653 4.2e-05 3.62951 -0.111044 -5.97755 2650 
3089 1 -0.0508619 -0.0113175 -0.0460003 0.000423 -3.20277 -0.328626 3.54125 2650 
822 1 -0.0514067 -0.0291963 -0.0453905 0.000423 -1.71324 -0.0779189 1.94032 2650 
1856 1 -0.0514277 -0.000872088 -0.0458281 0.000116 3.49881 -0.185816 -3.92631 2650 
2051 1 -0.0534965 -0.022833 -0.0433952 0.000116 0.920519 -0.668891 -1.13479 2650 
3580 1 -0.0543058 -0.0202186 -0.0423781 0.000116 -1.12797 0.768484 1.44546 2650 
3862 1 -0.0545812 -0.0360065 -0.0415192 0.000423 -1.78733 -0.272975 2.34963 2650 
2873 1 -0.0549301 -0.033398 -0.0410566 0.000423 -1.64533 -0.136903 2.20131 2650 
2256 1 -0.0558303 -0.0439319 -0.0403484 0.000116 -0.405295 -0.049722 0.56081 2650 
843 1 -0.0561457 -0.0438977 -0.0399084 0.000116 -0.56985 -0.172648 0.801702 2650 
4116 1 -0.0561894 -0.00631922 -0.0398468 0.000116 -1.85778 -0.157206 2.61972 2650 
2634 1 -0.0573158 -0.00977335 -0.038342 4.2e-05 -1.77044 -0.198014 2.64656 2650 
3904 1 -0.0572783 -0.00629676 -0.0382651 0.000116 -1.78308 -0.153908 2.66906 2650 
2700 1 -0.0578271 -0.01688 -0.0374307 0.000116 -1.74189 -0.233217 2.69107 2650 
3443 1 -0.0580256 -0.0251091 -0.0365511 0.000423 -1.35175 -0.198917 2.14593 2650 
1712 1 -0.0582147 -0.0197231 -0.0368249 0.000116 -1.71372 -0.0871259 2.70914 2650 
427 1 -0.0582462 -0.0146462 -0.036775 0.000116 -0.38827 0.306572 0.614962 2650 
1630 1 -0.0595636 -0.0134458 -0.0346006 0.000116 -1.61181 -0.325508 2.77466 2650 
2599 1 -0.0600211 -0.0244036 -0.0338007 0.000116 -0.795735 -0.818015 1.41301 2650 
4319 1 -0.0608617 -0.0405243 -0.0316039 0.000423 -1.29374 0.0205041 2.49144 2650 
991 1 -0.0613971 -0.0281415 -0.0300268 0.000656 -1.26203 -0.235326 2.58052 2650 
2327 1 -0.0619882 -0.0405391 -0.029333 0.000423 -1.34636 -0.192958 2.84521 2650 
3549 1 -0.061834 -0.0183421 -0.0296565 0.000423 -1.3701 -0.16039 2.85668 2650 
955 1 -0.0624907 -0.00656897 -0.0289817 0.000116 -1.35452 -0.170055 2.92063 2650 
8 1 -0.062517 -0.0334633 -0.0276195 0.000656 -1.14477 0.185015 2.5912 2650 
3431 1 -0.0625546 -0.029026 -0.0281047 0.000423 -1.13452 0.110497 2.52518 2650 
615 1 -0.0580036 -0.0237387 -0.0279482 0.000116 1.70296 -1.16553 -6.66463 2650 
3656 1 -0.062887 -0.0234983 -0.0273529 0.000423 -0.990503 -0.295258 2.27726 2650 
2959 1 -0.0633434 -0.0101643 -0.0272547 4.2e-05 -1.27099 -0.197997 2.95394 2650 
3960 1 -0.0178083 -0.00727569 -0.0269884 0.000423 -2.41604 -0.446904 -3.65693 2650 
3502 1 -0.00230249 -0.00358077 -0.0276001 4.2e-05 -0.305146 -0.0597332 -3.6578 2650 
2690 1 -0.0633242 -0.0157878 -0.0263248 0.000423 -1.22922 -0.355524 2.95689 2650 
2970 1 -0.0637109 -0.0195144 -0.0247412 0.000656 -0.79533 -0.293696 2.04805 2650 
1410 1 -0.0642957 -0.0186303 -0.0247201 0.000116 -1.01025 0.0509777 2.62762 2650 
710 1 -0.0643746 -0.00912271 -0.0236403 0.000423 -1.10216 -0.206596 3.00127 2650 
3743 1 -0.0644563 -0.0233162 -0.0234165 0.000423 -0.872557 -0.321474 2.4018 2650 
295 1 -0.0650736 -0.0145027 -0.022593 0.000116 -1.0473 -0.236701 3.0165 2650 
3464 1 -0.0655028 -0.0116077 -0.0213169 0.000116 -0.993034 -0.226999 3.0514 2650 
992 1 -0.0650305 -0.0359931 -0.0210294 0.000656 -0.698562 -0.294329 2.16021 2650 
1060 1 -0.0659919 -0.0376466 -0.0197509 0.000116 -0.725755 -0.634048 2.4249 2650 
2091 1 -0.0653541 -0.034278 -0.0200012 0.000656 -0.790272 -0.161924 2.58222 2650 
2875 1 -0.00493458 -0.004376 -0.0186777 0.000423 -0.379011 -0.258895 -1.50825 2650 
606 1 -0.000183 0.00348468 -0.016592 0.000116 0 -0.011753 0 2650 
188 1 -0.000365182 0.00745645 -0.0168259 0.000116 0.0165449 0.115943 -0.0162865 2650 
192 1 -0.000170377 0.00800746 -0.0166775 0.000116 0.0003015 -0.0085404 -0.100133 2650 
2713 1 -0.000763 0.0104557 -0.016767 0.000116 0 -0.011753 0 2650 
2179 1 -0.00165646 0.0509174 -0.0166221 0.000116 -0.88911 -0.485312 0.169117 2650 
3679 1 -0.0669127 -0.00753245 -0.016362 0.000116 -0.761238 -0.208789 3.11309 2650 
736 1 -0.003429 0.00140968 -0.016474 0.000116 0 -0.011753 0 2650 
150 1 -0.00250173 0.000902472 -0.0162497 0.000423 -0.00913371 0.00501626 0.00203877 2650 
676 1 -0.00221806 0.0019848 -0.0162412 0.000423 -0.0135783 -0.00452781 0.0177143 2650 
1679 1 -0.00363057 0.00280358 -0.015903 0.000423 -0.000267589 -0.00703629 -0.00433961 2650 
2013 1 -0.00280133 0.00301902 -0.0161655 0.000423 0.00298908 -0.00809762 0.00112683 2650 
2301 1 -0.004222 0.00525768 -0.016305 4.2e-05 0 -0.011753 0 2650 
3121 1 -0.00402199 0.00503034 -0.0159326 0.000423 0.0295457 0.00139416 -0.0105356 2650 
302 1 -0.000784931 0.00592551 -0.0165514 0.000116 0.0171051 0.0203877 0.0103663 2650 
1698 1 -0.000130082 0.00563841 -0.016502 0.000423 0.0411176 0.0348153 -1.85855e-05 2650 
1219 1 -0.00102559 0.00640279 -0.0159791 0.000656 0.0133734 0.0239605 0.00857101 2650 
3546 1 -0.000209109 0.00724845 -0.0161546 0.000423 0.025704 0.0149609 0.00360255 2650 
3934 1 -0.001977 0.00824668 -0.016218 0.000116 0 -0.011753 0 2650 
913 1 -0.000651518 0.0218263 -0.0163017 0.000423 -0.0131935 0.0940792 0.0439723 2650 
2532 1 -0.066549 -0.0284926 -0.0155705 0.000656 -0.652532 -0.134576 2.78895 2650 
2248 1 -0.0668428 -0.0238332 -0.0153296 0.000423 -0.560939 -0.202858 2.4459 2650 
1991 1 -0.00466605 0.000583162 -0.0154783 0.000656 -0.0197706 -0.00214867 0.00868857 2650 
2922 1 -0.00601508 0.00189248 -0.015162 0.000116 -0.0492521 -0.0166623 -0.0574868 2650 
3239 1 -0.00267441 0.00159224 -0.0155705 0.000116 -0.00859694 0.0134975 -0.018679 2650 
3589 1 -0.00536438 0.00378169 -0.0157866 0.000116 0.155503 0.064687 -0.0402711 2650 
2399 1 -0.002418 0.00369868 -0.015541 0.000116 0 -0.011753 0 2650 
2313 1 -0.00508841 0.00487058 -0.0153864 0.000656 -0.00213445 0.0338551 -0.0263352 2650 
978 1 -0.005372 0.00694468 -0.015286 0.000116 0 -0.011753 0 2650 
1620 1 -0.00459842 0.00662995 -0.0155285 0.000116 0.0529387 0.0514306 -0.00503745 2650 
2969 1 -0.0012507 0.00735954 -0.0150973 0.000656 -0.00214235 0.0311769 0.000161156 2650 
1483 1 -8.11797e-05 0.00802033 -0.0151268 0.000423 -0.023592 0.00968138 -0.006304 2650 
3177 1 -0.001068 0.00930268 -0.015412 4.2e-05 0 -0.011753 0 2650 
3830 1 -0.006879 0.00979868 -0.015411 4.2e-05 0 -0.011753 0 2650 
1617 1 -0.0043828 0.00948114 -0.015066 0.000116 0.0304875 0.00968505 -0.0492471 2650 
86 1 -0.002064 0.00950268 -0.015055 0.000116 0 -0.011753 0 2650 
371 1 -0.000478468 0.0101514 -0.0150963 0.000423 0.000724313 -0.00601752 -0.0061741 2650 
938 1 -0.000869 0.0107087 -0.015416 0.000116 0 -0.011753 0 2650 
568 1 -0.00437877 0.0158091 -0.0157014 0.000423 0.0183062 0.0263973 -0.10881 2650 
142 1 -0.00222716 0.0221227 -0.0151083 0.000423 -0.0926872 0.0526713 -0.0970482 2650 
3216 1 -0.00445642 0.0230529 -0.0151539 0.000423 -0.00544148 0.107266 0.0543995 2650 
1357 1 -0.00462023 0.0426009 -0.0157825 0.000423 0.0681058 0.285169 -0.0155587 2650 
4212 1 -0.0670643 -0.0166233 -0.0143296 0.000423 -0.679324 -0.191882 3.17933 2650 
2259 1 -0.067325 -0.00758247 -0.014573 0.000116 -0.624346 -0.202209 2.88438 2650 
1053 1 -0.007469 -0.000143322 -0.014946 0.000116 0 -0.011753 0 2650 
2827 1 -0.00451065 -0.000548086 -0.0143022 0.000116 -0.0201753 -0.0226203 0.0017234 2650 
623 1 -0.00680151 0.000736174 -0.0145164 0.000116 -0.00477071 -0.00938024 -0.0420845 2650 
3733 1 -0.00583254 0.000659082 -0.014224 0.000656 -0.024164 0.0138988 0.0212093 2650 
2332 1 -0.00398156 0.000362896 -0.0144786 0.000423 -0.0114447 -0.00779769 0.00753018 2650 
2817 1 -0.0020943 0.000254228 -0.0145956 0.000116 0.0100645 -0.056664 0.00630574 2650 
222 1 -0.00187184 0.00105361 -0.0149081 0.000656 -0.00713779 -0.040298 -0.0148088 2650 
3637 1 -0.00352799 0.00183406 -0.0148139 0.000423 -0.00927015 0.0142513 -0.0137177 2650 
220 1 -0.003649 0.00276168 -0.014897 4.2e-05 0 -0.011753 0 2650 
234 1 -0.00203636 0.00426312 -0.0143538 0.000423 0.0351287 -0.0167305 0.0264562 2650 
2283 1 -0.00127775 0.00415598 -0.0149426 0.000116 -0.0318858 -0.01081 -0.0228231 2650 
4296 1 -0.00246425 0.00547145 -0.0146166 0.000423 -0.0431702 0.0421068 0.0473826 2650 
1618 1 -0.00775421 0.00595082 -0.0149224 0.000116 -0.0316941 0.0615295 0.00665882 2650 
3365 1 -0.002315 0.00612468 -0.014552 0.000116 0 -0.011753 0 2650 
2438 1 -0.00576126 0.00676109 -0.0149431 0.000423 0.00224072 -0.00339368 -0.0261897 2650 
4227 1 -9.00992e-05 0.00743977 -0.0143327 0.000116 -0.00921828 -0.0161692 0.0154311 2650 
4190 1 -0.00806637 0.00856369 -0.0143765 0.000423 -0.009489 7.8582e-05 0.00632979 2650 
508 1 -0.0078321 0.00793685 -0.0148688 0.000116 -0.0609474 0.0130298 0.0475554 2650 
3515 1 -0.00691082 0.00808838 -0.0142665 0.000656 -0.00618896 -0.0090925 0.00826116 2650 
581 1 -0.0055884 0.00896356 -0.0142192 0.000423 -0.000469419 -0.0102297 -0.00424824 2650 
1228 1 -0.00139975 0.00957066 -0.0149954 0.000423 -0.00123313 -0.0118667 -0.000623591 2650 
3669 1 -0.000322022 0.0108725 -0.0145464 0.000423 0.00220454 -0.00743356 -0.00383523 2650 
2467 1 -0.00201518 0.0279206 -0.014651 0.000423 0.0301791 0.103437 0.0421276 2650 
3196 1 -0.00674032 -0.0032765 -0.0140486 0.000423 -0.0151487 -0.0348726 0.0137497 2650 
800 1 -0.00786914 -0.00216049 -0.0139136 0.000423 0.0734004 0.0256016 0.0971795 2650 
3153 1 -0.000354404 -0.00174532 -0.0137248 0.000116 -0.0842498 -0.0374178 0.0430189 2650 
3587 1 -0.00582271 0.00417658 -0.0139694 0.000116 0.00461134 0.0023037 -0.00278329 2650 
3322 1 -0.00390972 0.00427062 -0.0135583 0.000423 0.0155165 0.0110838 0.0251988 2650 
4165 1 -0.00516598 0.00499095 -0.0139791 0.000656 -0.00035358 -0.0321692 0.0084674 2650 
104 1 -0.00280466 0.005491 -0.0134754 4.2e-05 -0.00674979 0.0150481 0.0116551 2650 
2596 1 -0.0083337 0.00618175 -0.0138121 0.000116 -0.0442582 -0.0431064 0.0384975 2650 
3950 1 -0.00624411 0.00681277 -0.0139426 0.000656 -0.0401516 -0.0144037 -0.0334096 2650 
1584 1 -0.00123967 0.00651891 -0.0140083 0.000423 -0.00963006 0.0395817 0.04039 2650 
2322 1 -0.00800071 0.0075218 -0.0136957 0.000656 -0.0108707 -0.010103 0.00337555 2650 
1288 1 -0.002467 0.00742768 -0.014044 0.000116 0 -0.011753 0 2650 
2222 1 -0.000283116 0.00818285 -0.0141354 0.000423 -0.00549102 -0.00568171 -0.00117535 2650 
963 1 -0.00481977 0.00916502 -0.0139832 0.000116 -0.0353923 -0.062899 -0.0407773 2650 
1986 1 -0.00314302 0.00938608 -0.0141304 0.000656 0.00762539 0.0149956 0.0116892 2650 
1476 1 -0.006941 0.0102277 -0.013435 0.000423 0 -0.011753 0 2650 
233 1 -0.00478848 0.0100795 -0.0136502 0.000423 0.000342891 -0.00976437 -0.0328705 2650 
4257 1 -0.00852172 0.0111839 -0.0141764 0.000116 0.0101268 -0.0416798 0.0036163 2650 
1409 1 -0.00044 0.0112077 -0.013868 0.000116 0 -0.011753 0 2650 
3644 1 -0.00080467 0.0121953 -0.0139318 0.000423 -0.00432743 0.00711996 -0.0325914 2650 
3632 1 -0.00908034 0.0127829 -0.0137818 0.000423 -0.0221559 0.000444483 0.0133776 2650 
3932 1 -0.00544773 0.0195444 -0.0139539 0.000116 0.03152 0.0411719 0.0597923 2650 
574 1 -0.0673829 -0.0290199 -0.0127475 0.000423 -0.44848 0.0777672 2.37064 2650 
2072 1 -0.0676227 -0.0281796 -0.013122 0.000116 -0.372228 0.354385 1.91824 2650 
3933 1 -0.0677237 -0.00613818 -0.0125908 0.000116 -0.58533 -0.141678 3.1484 2650 
330 1 -0.0061935 -0.00270562 -0.0133056 4.2e-05 -0.0696064 -0.0147686 0.0345761 2650 
4097 1 -0.00854362 -0.00228837 -0.013369 0.000423 -0.0116536 0.00229875 0.0371095 2650 
1468 1 -0.00397142 -0.0010591 -0.0127813 0.000423 -0.0197001 -0.0470204 -0.0326717 2650 
509 1 -0.00721335 -0.000639027 -0.0132555 0.000116 -0.00521486 0.00944493 -0.0325939 2650 
4126 1 -0.00404777 -9.93649e-05 -0.0133748 0.000116 -0.0261531 0.0084042 0.00402279 2650 
3551 1 -0.00597314 7.14175e-05 -0.013148 0.000423 -0.0216652 0.0127841 -0.0071385 2650 
541 1 -0.00598251 0.00049168 -0.0129092 4.2e-05 -0.0143735 0.00954058 0.00936495 2650 
2525 1 -0.004063 0.00165468 -0.013231 4.2e-05 0 -0.011753 0 2650 
2619 1 -0.005851 0.00247068 -0.012854 0.000116 0 -0.011753 0 2650 
3880 1 -0.010277 0.00338668 -0.012913 0.000423 0 -0.011753 0 2650 
2609 1 -0.00886 0.00319468 -0.013248 0.000116 0 -0.011753 0 2650 
3645 1 -0.00499496 0.00340665 -0.0129331 0.000423 -0.0357151 -0.0039173 0.0164321 2650 
1171 1 -0.00827624 0.0046791 -0.0131821 0.000116 -0.0146011 -0.0168948 -0.0399555 2650 
2918 1 -0.00757 0.00454568 -0.012948 0.000116 0 -0.011753 0 2650 
450 1 -0.00669968 0.00427733 -0.0134021 0.000656 0.0113486 0.0469175 0.00740751 2650 
3917 1 -0.003984 0.00395568 -0.012703 0.000116 0 -0.011753 0 2650 
2059 1 -0.003583 0.00416468 -0.012756 0.000116 0 -0.011753 0 2650 
3380 1 -0.00220381 0.00466963 -0.0128857 0.000116 -0.00133046 -0.0120531 0.0302183 2650 
2512 1 -0.00975122 0.00483167 -0.0130967 0.000116 0.002514 -0.0160812 -0.0313025 2650 
2219 1 -0.00440676 0.00536021 -0.0127675 0.000423 0.0573797 0.046564 0.0166916 2650 
4310 1 -0.000448263 0.00543779 -0.0128694 0.000423 0.011252 0.0218425 0.101284 2650 
4078 1 -0.00860887 0.00649527 -0.0127415 0.000423 -0.0196946 -0.00953845 0.00130892 2650 
2913 1 -0.00694816 0.00709828 -0.0129091 0.000116 -0.028239 -0.0119827 -0.0130286 2650 
1427 1 -0.002948 0.00649568 -0.013376 4.2e-05 0 -0.011753 0 2650 
1237 1 -0.0103431 0.00767189 -0.0128 0.000423 -0.0167369 -0.000264958 -0.0403827 2650 
3259 1 -0.00850883 0.0077624 -0.0131481 0.000116 -0.0089878 -0.00810535 0.00538998 2650 
1519 1 -0.00191156 0.00730715 -0.0133677 0.000116 -0.0494896 0.0341374 0.0501115 2650 
1795 1 -0.008775 0.00849468 -0.012959 0.000423 0 -0.011753 0 2650 
1769 1 -0.00604191 0.00865792 -0.0132614 0.000656 -0.0180455 -0.00259761 -0.00548469 2650 
1250 1 -0.00760865 0.00915641 -0.0127216 0.000423 -0.0109693 -0.0170514 -0.0143142 2650 
205 1 -0.000744 0.00921168 -0.01334 0.000116 0 -0.011753 0 2650 
2483 1 -0.00912596 0.00987797 -0.0133707 0.000116 0.00258646 -0.0218162 0.0129531 2650 
1827 1 -0.00529022 0.00961841 -0.0130238 0.000116 -0.0556457 -0.0263815 -0.0392498 2650 
3007 1 -0.000919035 0.0115485 -0.0131389 0.000423 -0.0135196 -0.00505473 -0.0280609 2650 
1775 1 -0.00822644 0.0119523 -0.0130362 0.000423 -7.29146e-05 -0.011186 -0.000346901 2650 
478 1 -0.00674506 0.0146262 -0.0127942 0.000423 -0.0255767 0.012458 -0.051203 2650 
675 1 -0.00487315 0.0199822 -0.0127492 0.000423 -0.0171714 0.0807922 0.0289201 2650 
1979 1 -0.00672803 0.0217782 -0.0126375 4.2e-05 -0.060479 0.115177 0.0648972 2650 
2413 1 -0.00764653 -0.00236664 -0.0121354 4.2e-05 -0.0826713 -0.0311639 0.0536157 2650 
2468 1 -0.003167 -0.00194732 -0.012131 0.000423 0 -0.011753 0 2650 
545 1 -0.002328 -0.00232032 -0.012432 4.2e-05 0 -0.011753 0 2650 
1763 1 -0.001143 -0.00165932 -0.012442 0.000656 0 -0.011753 0 2650 
2645 1 -0.00528998 -0.000938536 -0.0126041 0.000656 -0.0339684 -0.013594 0.0452752 2650 
3191 1 -0.00675461 -0.00035233 -0.012492 0.000656 -0.0168446 0.00288294 -0.00297772 2650 
1422 1 -0.003881 0.000186678 -0.012349 4.2e-05 0 -0.011753 0 2650 
388 1 -0.00770303 0.000982508 -0.0124974 0.000116 0.0212466 0.0335067 0.0250458 2650 
3201 1 -0.00615077 0.000909747 -0.0125408 0.000423 -0.00608722 0.0216696 0.0089772 2650 
1799 1 -0.00323212 0.000996335 -0.0120578 0.000423 7.10678e-05 -0.0118308 4.63239e-05 2650 
3956 1 -0.00902554 0.00184708 -0.0123005 0.000656 -0.000640959 -0.0104529 -0.000368355 2650 
3389 1 -0.010415 0.00245268 -0.012026 0.000116 0 -0.011753 0 2650 
1125 1 -0.00512398 0.00305764 -0.0121364 0.000423 -0.0456429 0.0111646 0.0284182 2650 
2957 1 -0.00209089 0.00385366 -0.0122562 4.2e-05 0.0205169 0.0248349 -0.000218849 2650 
411 1 -0.0102928 0.00468268 -0.0120886 0.000116 -0.00787832 -0.00657823 -8.20909e-05 2650 
3826 1 -0.009208 0.00434768 -0.012552 0.000116 0 -0.011753 0 2650 
1032 1 -0.00734846 0.00413659 -0.0122235 0.000423 -0.0183694 0.00104764 -0.0575954 2650 
2912 1 -0.00609098 0.00451836 -0.0124645 0.000116 0.0152844 0.00719243 -0.0503855 2650 
2194 1 -0.00239044 0.00463224 -0.0125196 4.2e-05 0.00491046 0.00111596 0.00228026 2650 
708 1 -0.00272282 0.00463265 -0.0120606 0.000423 -0.00318183 -0.00599768 -0.010405 2650 
3316 1 -0.008979 0.00510068 -0.012376 0.000423 0 -0.011753 0 2650 
1261 1 -0.00744781 0.00501069 -0.0124087 0.000423 0.000611181 -0.0114942 -0.000246774 2650 
3362 1 -0.0026705 0.00515309 -0.0122163 0.000116 0.000350619 -0.00253681 -0.00404217 2650 
3446 1 -0.002592 0.00610768 -0.012627 0.000423 0 -0.011753 0 2650 
3030 1 -0.001189 0.00661068 -0.012596 0.000116 0 -0.011753 0 2650 
4318 1 -0.00850532 0.00780802 -0.0123804 0.000423 -0.00589465 -0.00768269 0.00318441 2650 
3847 1 -0.00969847 0.0086224 -0.0124093 0.000656 0.003414 -0.00345937 -0.00056311 2650 
1495 1 -0.004483 0.00807868 -0.012591 0.000116 0 -0.011753 0 2650 
3684 1 -0.00438771 0.00850716 -0.012281 0.000116 0.00413104 -0.0230128 -0.00941473 2650 
191 1 -0.0115447 0.00878586 -0.0119142 0.000116 -0.0068407 0.0371391 0.023513 2650 
4179 1 -0.00700156 0.0092905 -0.0120059 0.000423 -0.00767678 -0.0221048 -0.00852388 2650 
3173 1 -0.004958 0.00873968 -0.012321 4.2e-05 0 -0.011753 0 2650 
2630 1 -0.001036 0.00894768 -0.012074 4.2e-05 0 -0.011753 0 2650 
4002 1 -0.000443 0.00877168 -0.01223 0.000116 0 -0.011753 0 2650 
949 1 -0.0061203 0.0103769 -0.0126231 0.000116 -0.0176518 0.0277962 -0.00593252 2650 
1423 1 -0.00145 0.0104277 -0.012526 4.2e-05 0 -0.011753 0 2650 
3106 1 -0.00659064 0.0114317 -0.0120119 0.000423 -0.042507 0.0242048 -0.0146805 2650 
959 1 -0.00598956 0.0113603 -0.012323 0.000116 -0.0723779 0.0623805 -0.0339909 2650 
1802 1 -0.00422386 0.0124649 -0.0118625 0.000423 0.00500259 -0.000364755 -0.0111755 2650 
2205 1 -0.00507827 0.0132747 -0.0119686 0.000656 -0.00206311 0.000112593 -0.00429342 2650 
3798 1 -0.00290822 0.0131535 -0.0120155 0.000116 -0.0483102 0.213285 0.0286816 2650 
1143 1 -0.000948436 0.0142617 -0.0124095 0.000423 0.0070315 0.0110531 -0.00616027 2650 
2109 1 -0.00547619 0.0219616 -0.0121078 0.000423 -0.0277695 0.107912 0.0279852 2650 
3573 1 -0.00943508 0.0373193 -0.0120629 0.000116 0.196545 -0.226716 -0.153339 2650 
819 1 -0.00296735 0.0376909 -0.0118712 0.000423 0.076373 0.150736 0.0329282 2650 
3352 1 -0.0113678 0.0537305 -0.012325 0.000116 -0.873308 0.00025933 0.643558 2650 
3505 1 -0.006952 -0.00265132 -0.011235 4.2e-05 0 -0.011753 0 2650 
1022 1 -0.002093 -0.00278132 -0.011454 0.000423 0 -0.011753 0 2650 
2172 1 -0.00951117 -0.00168495 -0.0115182 0.000116 0.0554355 0.00150652 -0.0523356 2650 
440 1 -0.00061 -0.00134932 -0.011485 4.2e-05 0 -0.011753 0 2650 
2127 1 -0.0114032 -0.000279867 -0.0117043 0.000423 -0.129436 0.0152094 0.099489 2650 
2939 1 -0.00931669 0.000482884 -0.0115862 0.000116 -0.00341769 -0.0275913 0.0148239 2650 
3200 1 -0.0079208 0.000437229 -0.0116839 0.000423 -0.0275514 -0.0115593 0.0194145 2650 
248 1 -0.00704623 0.00130188 -0.0111522 0.000423 -0.0134856 -0.00351132 0.050645 2650 
3778 1 -0.00580125 0.00109242 -0.0116277 0.000423 -0.0441284 0.0265152 0.0540744 2650 
3894 1 -0.005583 0.00182168 -0.011098 0.000116 0 -0.011753 0 2650 
2279 1 -0.011792 0.00306637 -0.0112238 0.000116 -0.0158908 0.0502304 0.00803902 2650 
3477 1 -0.0107535 0.0029581 -0.0111361 0.000116 0.0616358 -0.0139442 -0.0219299 2650 
1063 1 -0.009531 0.00237668 -0.011683 0.000116 0 -0.011753 0 2650 
1595 1 -0.00780252 0.00286891 -0.011696 0.000423 -0.0081111 0.00198047 0.0261702 2650 
93 1 -0.0121528 0.00387197 -0.0114096 0.000116 -0.0640521 0.459533 0.183411 2650 
2285 1 -0.0116893 0.00374177 -0.0115817 0.000116 -0.013552 0.00856226 -0.0313614 2650 
1192 1 -0.00474389 0.00321905 -0.0114205 0.000116 -0.0160738 0.0171838 -0.0228619 2650 
2294 1 -0.004894 0.00405768 -0.011565 0.000116 0 -0.011753 0 2650 
1569 1 -0.00396583 0.00413615 -0.0110598 0.000423 -0.0101165 -0.00132906 0.0156053 2650 