ITEM: TIMESTEP
5506980
ITEM: NUMBER OF ATOMS
4356
ITEM: BOX BOUNDS ff ff ff
-0.15 0.15
-0.15 0.06
-0.15 0.15
ITEM: ATOMS id type x y z radius vx vy vz density 
1520 1 -0.00327208 -0.0544433 -0.0688064 0.000116 6.84411 -0.400409 -0.325471 2650 
3308 1 -0.0159732 -0.0593078 -0.0666919 0.000423 -2.49553 -0.24134 0.5977 2650 
4016 1 -0.0156173 -0.0478414 -0.0670904 0.000116 6.91889 1.89569 -1.61058 2650 
4139 1 -0.022044 -0.0568771 -0.0652617 0.000116 -1.15702 0.267904 0.390817 2650 
2855 1 -0.0252113 -0.0575535 -0.0641841 4.2e-05 -1.32744 0.191465 0.521415 2650 
1563 1 -0.0291484 -0.0554028 -0.0620752 0.000423 -3.06658 0.484992 1.43997 2650 
1961 1 -0.0344107 -0.0540493 -0.0596735 0.000116 1.73661 0.425562 -1.00142 2650 
4331 1 -0.0343651 -0.052577 -0.0596998 0.000116 -1.98169 -2.02381 1.14073 2650 
1591 1 -0.0414556 -0.0458149 -0.0546295 0.000423 -1.41599 0.296374 1.07453 2650 
1417 1 -0.0443562 -0.0543814 -0.0527025 0.000116 -1.68667 -0.0955972 1.41956 2650 
208 1 -0.0480623 -0.0547977 -0.0489085 0.000116 -2.44569 2.41441 1.56861 2650 
747 1 -0.052756 -0.0626809 -0.0442927 0.000116 10.084 -0.00999869 -12.0109 2650 
4150 1 -0.0534929 -0.0542505 -0.0433996 0.000116 0.847386 0.787742 -1.04446 2650 
2256 1 -0.0609745 -0.0459944 -0.0320489 0.000116 0.26539 -0.551208 -0.504915 2650 
1051 1 -0.0616606 -0.062684 -0.0269366 0.000116 5.73119 1.18375e-10 -3.75689 2650 
3425 1 -0.0655753 -0.0618277 -0.0200626 0.000423 -0.417679 -0.0470511 0.982833 2650 
2201 1 -0.065707 -0.0481892 -0.0188094 0.000656 0.0607612 0.666632 -0.212258 2650 
2274 1 -0.0665381 -0.0584834 -0.0178243 0.000116 1.76052 0.439532 -6.57201 2650 
19 1 -0.066849 -0.0622498 -0.0153022 0.000423 0.177603 0.175042 -0.770829 2650 
4316 1 -0.0669463 -0.0612949 -0.0148707 0.000423 -0.122118 0.433049 0.550294 2650 
3692 1 -0.0683998 -0.0528829 -0.00815437 0.000116 0.0640996 0.249297 -0.537675 2650 
1314 1 -0.0687275 -0.0614023 0.00563386 4.2e-05 -0.481422 -0.678613 -5.87287 2650 
649 1 -0.0680865 -0.0598233 0.0104523 0.000116 -0.216834 0.434929 -1.41246 2650 
2083 1 -0.0666691 -0.0536552 0.0176193 4.2e-05 0.174032 0.0784826 0.658512 2650 
1060 1 -0.0662301 -0.0461639 0.0189366 0.000116 0.850719 -0.329787 2.97536 2650 
2790 1 -0.0640894 -0.0502712 0.0244029 0.000423 0.862681 -0.164746 2.26566 2650 
2557 1 -0.0628951 -0.0458697 0.0273341 0.000423 0.652095 0.0902778 1.50045 2650 
1270 1 -0.0482907 -0.0626545 0.0419451 0.000116 -4.61731 -0.407936 -5.28541 2650 
1208 1 -0.0529373 -0.0585731 0.0441911 4.2e-05 0.364705 -4.88941 0.436886 2650 
2612 1 -0.0503319 -0.0569645 0.047029 0.000116 -1.39407 0.606174 -1.49197 2650 
3331 1 -0.0486754 -0.0539209 0.048308 0.000423 2.02117 0.182555 2.03654 2650 
2954 1 -0.0442483 -0.0494311 0.0527931 0.000116 -0.931737 -0.857363 -0.780932 2650 
1239 1 -0.0428542 -0.0573003 0.0535394 0.000423 1.17313 -0.166565 0.939001 2650 
758 1 -0.0437067 -0.0539297 0.0532425 0.000116 -12.4402 -0.0339968 -10.2122 2650 
3348 1 -0.0434943 -0.0471107 0.053416 0.000116 -0.178023 -0.982185 -0.144956 2650 
3785 1 -0.0322509 -0.0559408 0.0608679 0.000116 -3.08305 0.602561 -1.63356 2650 
3918 1 -0.0312018 -0.0541578 0.0614124 0.000116 -12.7719 0.846012 -6.48898 2650 
2667 1 -0.0270144 -0.0620071 0.0630331 0.000423 2.04745 0.201954 0.877635 2650 
3957 1 -0.0269858 -0.0508994 0.0627931 0.000656 1.97299 0.425429 0.847907 2650 
689 1 -0.0262035 -0.0622506 0.0633745 0.000423 1.04887 0.0411753 0.43358 2650 
2395 1 -0.0152588 -0.060417 0.0633564 0.000116 -5.91499 2.25374 -7.0535 2650 
2928 1 -0.0242818 -0.0573511 0.0644626 0.000116 -12.854 1.1665 -4.84184 2650 
575 1 -0.0229839 -0.0513175 0.0646118 0.000423 1.10569 -1.02722 0.393319 2650 
343 1 -0.0242145 -0.0487758 0.0641608 0.000423 2.40142 0.304406 0.906301 2650 
3531 1 -0.0225272 -0.0525461 0.0647725 0.000423 1.9551 -0.462291 0.679964 2650 
3069 1 -0.0183784 -0.0507351 0.0664639 4.2e-05 2.45114 -1.12301 0.677781 2650 
893 1 -0.00285039 -0.0530085 0.0685188 0.000423 1.51725 -0.114449 0.0631177 2650 
1463 1 -0.00742226 -0.0528573 0.0681752 0.000423 2.38292 -0.126241 0.259429 2650 
4133 1 -0.0104651 -0.0465039 0.0680845 0.000116 -0.0286028 0.0651393 -0.00439646 2650 
200 1 -0.00371666 -0.0626289 0.0687838 0.000116 -5.70586 -0.0164299 -0.30831 2650 
835 1 -0.00501392 -0.0202692 -0.0687071 0.000116 -0.29435 0.174606 -0.118433 2650 
2418 1 -0.00435043 -0.0174611 -0.0688207 4.2e-05 -3.13689 -0.0204248 0.198294 2650 
3815 1 -0.00469007 -0.00992058 -0.0687243 0.000116 -3.24427 -0.27745 0.221404 2650 
1943 1 -0.00236671 -0.00828005 -0.0688435 0.000116 5.84253 0.455902 -0.200855 2650 
1870 1 -0.00487347 -0.00552756 -0.0687856 4.2e-05 -2.24573 -0.0402649 0.15911 2650 
636 1 -0.00346578 -0.00398648 -0.0687969 0.000116 -3.29572 -0.10132 0.166028 2650 
468 1 -0.00592128 -0.0426093 -0.068322 0.000423 -2.75928 0.456857 0.23914 2650 
1372 1 -0.00934101 -0.0325259 -0.0679389 0.000423 -2.69211 -0.131188 0.370141 2650 
91 1 -0.0114242 -0.0301376 -0.0679302 0.000116 -3.48485 -0.261662 0.586065 2650 
691 1 -0.00579131 -0.030205 -0.0683331 0.000423 -2.9829 0.0116078 0.252804 2650 
2208 1 -0.00767594 -0.0294768 -0.0679138 0.000656 -2.54112 0.0928639 0.287209 2650 
3543 1 -0.00600302 -0.0291888 -0.0683148 0.000423 -2.96049 0.0325844 0.260147 2650 
753 1 -0.00915377 -0.0281911 -0.0682721 0.000116 -3.04006 0.0165222 0.780432 2650 
4323 1 -0.00890398 -0.0278003 -0.0679972 0.000423 -2.80331 0.295728 0.381374 2650 
1990 1 -0.00782868 -0.0279168 -0.0678964 0.000656 -2.82494 0.219343 0.325725 2650 
1833 1 -0.00726866 -0.0237312 -0.0684996 0.000116 -2.78471 -0.549652 0.295492 2650 
1433 1 -0.00701631 -0.0227564 -0.0679852 0.000656 -2.88515 -0.351453 0.297757 2650 
2680 1 -0.00305257 -0.0212902 -0.0685101 0.000423 -2.74211 -0.436391 0.122179 2650 
3874 1 -0.00438008 -0.0177344 -0.0684381 0.000423 -3.02995 -0.114277 0.193948 2650 
1453 1 -0.00505185 -0.017033 -0.0683918 0.000423 -3.08369 -0.134846 0.227781 2650 
2317 1 -0.00445881 -0.0134628 -0.0682006 0.000656 -2.37083 0.399747 0.155 2650 
1794 1 -0.00491457 -0.0117845 -0.0684018 0.000423 -2.85274 -0.0703267 0.204966 2650 
491 1 -0.00436199 -0.0111282 -0.0684392 0.000423 -2.90336 -0.0103374 0.185046 2650 
2000 1 -0.00555331 -0.00944565 -0.0683528 0.000423 0.189031 1.29622 -0.0153578 2650 
4138 1 -0.00537026 -0.00862339 -0.0686745 0.000116 -3.58961 0.186033 0.280703 2650 
2679 1 -0.0107943 -0.0278166 -0.0677232 0.000423 -3.22143 -0.0484579 0.513459 2650 
3527 1 -0.0120603 -0.0267334 -0.0675093 0.000423 -2.33632 -0.0737777 0.417376 2650 
1325 1 -0.0100925 -0.0141275 -0.0675969 0.000656 -2.37903 0.264666 0.355199 2650 
1503 1 -0.0132173 -0.00542601 -0.0676042 0.000116 -2.3086 2.14578 0.451354 2650 
3647 1 -0.0100694 -0.00428264 -0.0678348 0.000423 -3.2403 -0.107864 0.480989 2650 
1207 1 -0.012861 -6.96828e-05 -0.0677445 4.2e-05 -2.17376 -1.62084 0.591754 2650 
2211 1 -0.0164526 -0.0395024 -0.0663364 0.000656 -2.33098 -0.0923776 0.578125 2650 
1912 1 -0.0144423 -0.0387372 -0.0670401 0.000423 -2.32299 -0.0397705 0.500437 2650 
2546 1 -0.0144401 -0.0252118 -0.0670406 0.000423 -2.53882 -0.265925 0.546844 2650 
3444 1 -0.0149834 -0.000657158 -0.0669212 0.000423 -2.81209 0.209786 0.629617 2650 
1587 1 -0.0182551 -0.0284695 -0.0661037 0.000423 -0.512277 -0.699782 0.14147 2650 
935 1 -0.0179272 -0.0254355 -0.0661934 0.000423 -1.99926 -1.08924 0.54146 2650 
367 1 -0.0192811 -0.0196076 -0.0658118 0.000423 -2.39996 -0.226802 0.703124 2650 
2066 1 -0.0198818 -0.0130716 -0.0659525 0.000116 -2.7258 0.150243 0.821708 2650 
1210 1 -0.020543 -0.0101631 -0.065827 4.2e-05 -3.05372 -0.188385 0.952993 2650 
2060 1 -0.0203354 -0.00317137 -0.0658141 0.000116 0.409137 2.3726 -0.126416 2650 
1170 1 -0.0222994 -0.0184747 -0.0651748 0.000116 -3.06698 -0.157088 1.04936 2650 
1655 1 -0.0255317 -0.0437102 -0.0633982 0.000656 -1.34359 0.0940142 0.541089 2650 
2103 1 -0.0251502 -0.021687 -0.0637998 0.000423 -2.521 -0.0324082 0.99379 2650 
4025 1 -0.0258124 -0.0163861 -0.063865 0.000116 -2.96877 0.14605 1.19989 2650 
1020 1 -0.0264651 -0.0152111 -0.0632657 0.000423 -1.76837 0.480342 0.73974 2650 
14 1 -0.0269757 -0.0299913 -0.0630497 0.000423 -2.23535 0.00712845 0.956389 2650 
1356 1 -0.0269964 -0.0185642 -0.0630408 0.000423 -2.32289 -0.593718 0.994747 2650 
3066 1 -0.0284239 -0.0158089 -0.0628275 4.2e-05 -1.47974 -0.170169 0.669453 2650 
3619 1 -0.0290309 -0.00138606 -0.0625493 4.2e-05 6.50294 -0.340435 -3.0182 2650 
3024 1 -0.0123374 -0.0188979 -0.0612672 0.000116 -4.76648 0.95756 0.20019 2650 
2337 1 -0.031474 -0.00281071 -0.060929 0.000423 -2.88099 0.195992 1.48823 2650 
2560 1 -0.0324522 -0.0374994 -0.0604136 0.000423 -2.35711 0.18598 1.26616 2650 
420 1 -0.0328351 -0.0132781 -0.0605548 0.000116 -2.80654 -0.230889 1.52181 2650 
4106 1 -0.0318385 -0.00789495 -0.0607393 0.000423 -2.61063 0.472494 1.36845 2650 
1598 1 -0.033588 -0.00530222 -0.0601404 0.000116 -1.05201 -0.139505 0.587539 2650 
355 1 -0.0346838 -0.024606 -0.0591607 0.000423 -2.38886 0.104601 1.40051 2650 
2052 1 -0.0355272 -0.00884123 -0.0590156 0.000116 -2.74851 -0.190137 1.6546 2650 
400 1 -0.0354064 -0.00843981 -0.0590882 0.000116 -2.75691 -0.163179 1.65197 2650 
3196 1 -0.0255575 -0.00776402 -0.0588354 0.000423 -3.8579 -0.358288 -8.94345 2650 
3718 1 -0.0372573 -0.0236405 -0.0580267 4.2e-05 3.83249 0.506732 -2.46074 2650 
1638 1 -0.0373544 -0.0167226 -0.0578766 0.000116 14.5581 -2.14757 -9.39605 2650 
2875 1 -0.0372016 -0.00928825 -0.0576107 0.000423 -2.68535 -0.306318 1.73404 2650 
3502 1 -0.0369253 -0.00505992 -0.0582386 4.2e-05 -2.70307 -0.112404 1.71384 2650 
3227 1 -0.0380663 -0.0337759 -0.057043 0.000423 -2.42191 -0.370708 1.61621 2650 
1202 1 -0.0387564 -0.0218522 -0.0570364 4.2e-05 -1.49717 0.0302273 1.01733 2650 
2465 1 -0.0385908 -0.0430519 -0.0566895 0.000423 -1.70829 0.261895 1.1629 2650 
821 1 -0.0387057 -0.0325045 -0.0566112 0.000423 -2.36975 0.267455 1.62022 2650 
2151 1 -0.0395047 -0.00725211 -0.0564305 0.000116 -2.56577 -0.117053 1.79619 2650 
4017 1 -0.0398706 -0.00687588 -0.0561726 0.000116 0.121573 -0.273661 -0.0862908 2650 
3204 1 -0.0410682 -0.0261241 -0.0549214 0.000423 -2.11273 0.052727 1.57982 2650 
3328 1 -0.0414368 -0.0246391 -0.0546438 0.000423 -2.22286 0.173746 1.68561 2650 
319 1 -0.0419704 -0.0194156 -0.0546215 0.000116 -2.54734 -0.157811 1.95734 2650 
3945 1 -0.0427718 -0.00105164 -0.0540905 4.2e-05 5.42308 -0.0291464 -4.28827 2650 
3875 1 -0.0428958 -0.0302745 -0.0535061 0.000423 -1.95621 0.238101 1.56829 2650 
1002 1 -0.0439442 -0.0353659 -0.0523462 0.000656 -2.3014 -0.216729 1.932 2650 
152 1 -0.044057 -0.0211392 -0.0525541 0.000423 -2.25344 0.346621 1.88909 2650 
2055 1 -0.0445834 -0.0408346 -0.0517581 0.000116 8.94448 -0.234862 -7.42141 2650 
3040 1 -0.0456955 -0.00336273 -0.0515456 0.000116 -1.39668 -0.177732 1.23817 2650 
3422 1 -0.0471285 -0.0262737 -0.0498182 0.000423 -1.48905 -0.147464 1.40865 2650 
633 1 -0.0470851 -0.0147556 -0.0502794 0.000116 -2.35832 -0.165777 2.20849 2650 
3522 1 -0.0475454 -0.0288141 -0.0494205 0.000423 -1.1938 -0.380462 1.14851 2650 
2862 1 -0.0479429 -0.0272667 -0.0487102 0.000656 -2.0201 0.193405 1.98828 2650 
3391 1 -0.0507946 -0.018903 -0.0466382 4.2e-05 -2.16422 0.0356043 2.3571 2650 
4021 1 -0.051105 -0.000798375 -0.0461876 0.000116 -0.279055 -0.0531919 0.308765 2650 
844 1 -0.0506972 -0.041351 -0.0457008 0.000116 1.2702 -0.342869 0.747585 2650 
1647 1 -0.0302935 -0.0222339 -0.045198 4.2e-05 6.6472 -0.642127 -2.2174 2650 
3248 1 -0.0520555 -0.00946031 -0.0451137 0.000116 -2.1022 -0.201162 2.42567 2650 
4250 1 -0.0524457 -0.034928 -0.0446595 0.000116 -0.277429 -0.722342 0.325797 2650 
4320 1 -0.052921 -0.0333371 -0.0436156 0.000423 -1.49585 0.0664508 1.81499 2650 
1957 1 -0.0534208 -0.0180144 -0.0434884 0.000116 -2.09526 0.106176 2.5738 2650 
1343 1 -0.0527536 -0.0151827 -0.043818 0.000423 -1.97507 -0.2054 2.37784 2650 
2051 1 -0.0536432 -0.0172373 -0.0432137 0.000116 -0.57819 0.913519 0.717734 2650 
981 1 -0.0540125 -0.0339731 -0.0421793 4.2e-05 -3.00706 -1.03889 4.15032 2650 
615 1 -0.0551621 -0.0163135 -0.0412573 0.000116 -1.97324 -0.0514935 2.63827 2650 
3964 1 -0.0554509 -0.0283099 -0.0403504 0.000423 -1.47269 0.0518589 2.02383 2650 
1818 1 -0.0568145 -0.0165217 -0.0389505 0.000116 -1.81123 0.152165 2.64191 2650 
2247 1 -0.0567544 -0.0270704 -0.0384954 0.000423 -1.35095 0.143063 1.99173 2650 
838 1 -0.0574993 -0.0104724 -0.0379322 0.000116 -1.76969 -0.203292 2.68257 2650 
3349 1 -0.0451509 -0.0043862 -0.0388276 0.000116 -6.96439 -0.118237 -6.00263 2650 
1282 1 -0.0590285 -0.016347 -0.0355058 0.000116 -1.65129 -0.219547 2.74528 2650 
2605 1 -0.0587762 -0.0141064 -0.0359219 0.000116 -1.931 0.0818592 3.15954 2650 
3974 1 -0.0590612 -0.0391464 -0.0348529 0.000423 -1.08626 -0.553972 1.84075 2650 
55 1 -0.0588119 -0.0243377 -0.0352719 0.000423 -1.17864 0.210916 1.96525 2650 
378 1 -0.0589099 -0.00909309 -0.035108 0.000423 -1.43376 -0.0122573 2.4058 2650 
1363 1 -0.0595987 -0.019726 -0.0339257 0.000423 -1.59031 -0.388556 2.79377 2650 
3330 1 -0.0594203 -0.00970654 -0.0342371 0.000423 -1.32157 0.441862 2.29365 2650 
2578 1 -0.0598961 -0.0265036 -0.0333977 0.000423 -1.23911 0.0893616 2.22224 2650 
3516 1 -0.0598853 -0.000739963 -0.0329387 0.000656 -1.36944 0.495909 2.48977 2650 
51 1 -0.0607856 -0.0445301 -0.03175 0.000423 0.422379 0.421563 -0.808647 2650 
482 1 -0.0612174 -0.0207747 -0.0309092 0.000423 -0.722851 0.113623 1.43165 2650 
312 1 -0.0619775 -0.00215743 -0.0300635 0.000116 -1.25705 -0.0503635 2.59147 2650 
146 1 -0.0620746 -0.0200876 -0.0291766 0.000423 -1.01173 -0.0717858 2.75738 2650 
3734 1 -0.0614649 -0.0195435 -0.0298878 0.000656 -1.34856 -0.11488 2.77334 2650 
2738 1 -0.0625816 -0.0147575 -0.0289612 4.2e-05 -1.356 -0.253831 2.93014 2650 
1185 1 -0.0626661 -0.0214359 -0.0282698 0.000116 1.19546 -1.90845 0.453978 2650 
1760 1 -0.0497412 -0.00098841 -0.0278884 4.2e-05 -1.42246 -0.176789 -4.8774 2650 
1537 1 -0.0618529 -0.000129902 -0.0282324 4.2e-05 8.71694 0.225426 -0.665691 2650 
2835 1 -0.0632571 -0.0108336 -0.0272684 0.000116 2.08002 -2.29428 -4.82628 2650 
1813 1 -0.0632976 -0.0394789 -0.0263927 0.000423 -0.399333 0.148932 0.943676 2650 
427 1 -0.0637051 -0.00960815 -0.0262046 0.000116 0.139317 1.54335 -0.338678 2650 
1781 1 -0.0636103 -0.0396411 -0.0256214 0.000423 -0.532009 0.39456 1.45286 2650 
4177 1 -0.0637475 -0.0386915 -0.0252826 0.000423 -1.00233 -0.223578 2.52728 2650 
843 1 -0.065039 -0.0429722 -0.0226925 0.000116 -0.304783 -0.0107614 0.87354 2650 
1500 1 -0.00143688 -0.00647589 -0.0223468 0.000116 -0.414922 -0.681447 -2.65778 2650 
1619 1 -0.0655849 -0.0129878 -0.0210629 0.000116 -0.878039 0.16271 2.734 2650 
4303 1 -0.0656001 -0.0273949 -0.0199895 0.000423 -0.570969 -0.0576901 1.87377 2650 
2672 1 -0.0654733 -0.0144379 -0.0204011 0.000423 -0.948485 -0.220521 3.04397 2650 
2920 1 -0.0660682 -0.0333498 -0.0194941 0.000116 -0.882318 -0.431703 2.9903 2650 
3580 1 -0.0660265 -0.0218899 -0.0195671 0.000116 -0.889601 -0.709466 1.14937 2650 
980 1 -0.0630372 -0.00482896 -0.0184563 4.2e-05 -0.66656 -0.105319 2.99038 2650 
1886 1 -0.0252699 -0.00513104 -0.0185235 0.000423 -3.65673 -0.214497 -2.69295 2650 
2162 1 -0.0643352 -0.044476 -0.0176916 0.000116 -0.589647 7.74934 -0.966613 2650 
3426 1 -0.0662879 -0.0389426 -0.0175745 0.000423 -0.761004 -0.643579 2.87037 2650 
1922 1 -0.0665617 -0.0168387 -0.0165072 0.000423 -0.754213 -0.138074 3.0412 2650 
606 1 -0.000183 0.00328735 -0.016592 0.000116 0 -0.011753 0 2650 
188 1 -0.000525746 0.00878814 -0.0168121 0.000116 -0.0156058 0.0716121 0.00169132 2650 
2713 1 -0.000763 0.0102583 -0.016767 0.000116 0 -0.011753 0 2650 
3831 1 -0.0623801 -0.0220124 -0.016315 4.2e-05 2.83793 -1.26644 1.1207 2650 
2793 1 -0.00161361 -0.000254366 -0.0162316 0.000423 -0.196329 0.280618 -0.311039 2650 
3043 1 -0.00170248 9.89708e-05 -0.015833 0.000116 -0.167019 0.329308 -0.339868 2650 
736 1 -0.003429 0.00121235 -0.016474 0.000116 0 -0.011753 0 2650 
150 1 -0.00265508 0.000986694 -0.0162155 0.000423 -0.00913371 0.00501626 0.00203877 2650 
676 1 -0.0024428 0.00191033 -0.0159465 0.000423 -0.0130706 -0.00428427 0.0172903 2650 
1679 1 -0.00363506 0.00268544 -0.0159759 0.000423 -0.000267589 -0.00703629 -0.00433961 2650 
2013 1 -0.00275115 0.00288306 -0.0161466 0.000423 0.00298908 -0.00809762 0.00112683 2650 
2301 1 -0.004222 0.00506035 -0.016305 4.2e-05 0 -0.011753 0 2650 
3121 1 -0.00352592 0.00505375 -0.0161095 0.000423 0.0295457 0.00139416 -0.0105356 2650 
3589 1 -0.00275349 0.00486778 -0.0164627 0.000116 0.155503 0.064687 -0.0402711 2650 
1388 1 -0.00051547 0.00518689 -0.0161364 0.000116 -0.039288 0.0021603 0.0169103 2650 
302 1 -0.000497738 0.00626782 -0.0163774 0.000116 0.0171051 0.0203877 0.0103663 2650 
1219 1 -0.000801055 0.00680508 -0.0158352 0.000656 0.0133734 0.0239605 0.00857101 2650 
3934 1 -0.001977 0.00804935 -0.016218 0.000116 0 -0.011753 0 2650 
1617 1 -0.00387091 0.00964375 -0.0158928 0.000116 0.0304875 0.00968505 -0.0492471 2650 
142 1 -0.00361222 0.0229266 -0.0159289 0.000423 -0.0600809 0.0373384 0.0570253 2650 
4245 1 -0.00106783 0.0394606 -0.0164106 0.000116 -0.131082 0.152483 0.00432583 2650 
1357 1 -0.00347674 0.0473889 -0.0160438 0.000423 0.0681058 0.285169 -0.0155587 2650 
2386 1 -0.0670824 -0.0196817 -0.0156518 0.000116 -0.706572 -0.239726 3.0283 2650 
623 1 -0.00688161 0.00057868 -0.015223 0.000116 -0.00477071 -0.00938024 -0.0420845 2650 
1991 1 -0.004998 0.000547086 -0.0153324 0.000656 -0.0197706 -0.00214867 0.00868857 2650 
222 1 -0.00199172 0.000377054 -0.0151567 0.000656 -0.00725404 -0.0401553 -0.0146397 2650 
2922 1 -0.00645224 0.00166703 -0.0151426 0.000116 -0.0108987 -0.0113206 0.0393947 2650 
3637 1 -0.00368364 0.00207334 -0.0150442 0.000423 -0.00927015 0.0142513 -0.0137177 2650 
3239 1 -0.00297556 0.00174364 -0.0157532 0.000116 -0.0332144 0.00168872 0.00188105 2650 
2399 1 -0.002418 0.00350135 -0.015541 0.000116 0 -0.011753 0 2650 
2283 1 -0.00181311 0.00397448 -0.0153258 0.000116 -0.0318858 -0.01081 -0.0228231 2650 
2313 1 -0.00495671 0.00536009 -0.0152626 0.000656 0.00856952 0.0288131 0.00982472 2650 
2438 1 -0.00572877 0.00670146 -0.0153778 0.000423 0.00192492 -0.00355692 -0.0258764 2650 
978 1 -0.00512333 0.00687588 -0.0155328 0.000116 0.015313 -0.00383775 -0.0151954 2650 
1620 1 -0.00370958 0.00749347 -0.0156131 0.000116 0.0529387 0.0514306 -0.00503745 2650 
2969 1 -0.00133225 0.00785941 -0.0150939 0.000656 -0.00819712 0.0280435 0.000260256 2650 
1483 1 -0.00030728 0.00827086 -0.0152355 0.000423 -0.0010087 0.0213686 -0.00667363 2650 
86 1 -0.002064 0.00930535 -0.015055 0.000116 0 -0.011753 0 2650 
3177 1 -0.001068 0.00910535 -0.015412 4.2e-05 0 -0.011753 0 2650 
1228 1 -0.00142045 0.00937142 -0.0150059 0.000423 -0.00123313 -0.0118667 -0.000623591 2650 
3830 1 -0.006879 0.00960135 -0.015411 4.2e-05 0 -0.011753 0 2650 
371 1 -0.000466306 0.0100504 -0.0151999 0.000423 0.000724313 -0.00601752 -0.0061741 2650 
938 1 -0.000869 0.0105113 -0.015416 0.000116 0 -0.011753 0 2650 
568 1 -0.0034037 0.016339 -0.0155791 0.000423 0.0646767 0.0324089 0.0265592 2650 
913 1 -0.000873036 0.0234059 -0.0155634 0.000423 -0.0131935 0.0940792 0.0439723 2650 
1996 1 -0.0670606 -0.0436062 -0.0143469 0.000423 -0.546305 0.420274 2.55356 2650 
2827 1 -0.00484939 -0.000927879 -0.0142732 0.000116 -0.0201753 -0.0226203 0.0017234 2650 
1053 1 -0.007469 -0.000340654 -0.014946 0.000116 0 -0.011753 0 2650 
2817 1 -0.00192532 -0.000697158 -0.0144898 0.000116 0.0100645 -0.056664 0.00630574 2650 
2332 1 -0.00417372 0.000231974 -0.0143521 0.000423 -0.0114447 -0.00779769 0.00753018 2650 
220 1 -0.003649 0.00256435 -0.014897 4.2e-05 0 -0.011753 0 2650 
3365 1 -0.002315 0.00592735 -0.014552 0.000116 0 -0.011753 0 2650 
1618 1 -0.00813699 0.00694965 -0.0145965 0.000116 -0.0222988 0.059375 0.0201275 2650 
3950 1 -0.00691825 0.00657093 -0.0145035 0.000656 -0.0401516 -0.0144037 -0.0334096 2650 
4190 1 -0.00822568 0.008565 -0.0142702 0.000423 -0.009489 7.8582e-05 0.00632979 2650 
963 1 -0.00536146 0.00808799 -0.0146717 0.000116 -0.029376 -0.065298 -0.0412241 2650 
581 1 -0.00559736 0.00879224 -0.0142905 0.000423 -0.000593495 -0.0101803 -0.00423903 2650 
3669 1 -0.000285008 0.0107476 -0.0146108 0.000423 0.00220454 -0.00743356 -0.00383523 2650 
3644 1 -0.000877328 0.0123148 -0.014479 0.000423 -0.00432743 0.00711996 -0.0325914 2650 
3216 1 -0.00454778 0.0248539 -0.0142405 0.000423 -0.00544148 0.107266 0.0543995 2650 
3573 1 -0.00613511 0.0335127 -0.0146375 0.000116 0.196545 -0.226716 -0.153339 2650 
509 1 -0.00730091 -0.000480447 -0.0138027 0.000116 -0.00521486 0.00944493 -0.0325939 2650 
3733 1 -0.00622956 0.000924069 -0.0139228 0.000656 -0.0232119 0.0173762 0.0152854 2650 
2512 1 -0.00970901 0.00456167 -0.0136223 0.000116 0.002514 -0.0160812 -0.0313025 2650 
1171 1 -0.00852139 0.00439544 -0.0138529 0.000116 -0.0146011 -0.0168948 -0.0399555 2650 
3587 1 -0.005878 0.00409877 -0.0140354 0.000116 -0.0152422 -0.0151231 -0.00566973 2650 
4165 1 -0.00517119 0.00445148 -0.0138368 0.000656 -0.000243806 -0.0320728 0.00848336 2650 
234 1 -0.00144655 0.00398221 -0.0139096 0.000423 0.0351287 -0.0167305 0.0264562 2650 
4296 1 -0.00318907 0.00617842 -0.013821 0.000423 -0.0431702 0.0421068 0.0473826 2650 
2322 1 -0.00818323 0.00735217 -0.013639 0.000656 -0.0108707 -0.010103 0.00337555 2650 
1288 1 -0.002467 0.00723035 -0.014044 0.000116 0 -0.011753 0 2650 
4227 1 -0.000244874 0.00716829 -0.0140737 0.000116 -0.00921828 -0.0161692 0.0154311 2650 
508 1 -0.00885541 0.00815562 -0.0140704 0.000116 -0.0609474 0.0130298 0.0475554 2650 
3515 1 -0.00704349 0.00791451 -0.0141634 0.000656 -0.0103794 -0.0121819 0.00307219 2650 
2222 1 -0.00037531 0.00808746 -0.0141552 0.000423 -0.00549102 -0.00568171 -0.00117535 2650 
1827 1 -0.00613192 0.00935994 -0.0137099 0.000116 -0.0386186 0.00754243 -0.0442276 2650 
1476 1 -0.006941 0.0100303 -0.013435 0.000423 0 -0.011753 0 2650 
233 1 -0.00478272 0.00991559 -0.0142021 0.000423 0.000342891 -0.00976437 -0.0328705 2650 
1986 1 -0.00301499 0.00963785 -0.0139341 0.000656 0.00762539 0.0149956 0.0116892 2650 
4257 1 -0.00835169 0.0104841 -0.0141157 0.000116 0.0101268 -0.0416798 0.0036163 2650 
1409 1 -0.00044 0.0110103 -0.013868 0.000116 0 -0.011753 0 2650 
3007 1 -0.00114603 0.0114636 -0.01361 0.000423 -0.0135196 -0.00505473 -0.0280609 2650 
3632 1 -0.00944964 0.0127905 -0.013554 0.000423 -0.0216519 0.000467483 0.0139725 2650 
478 1 -0.00717449 0.0148353 -0.0136539 0.000423 -0.0255767 0.012458 -0.051203 2650 
2467 1 -0.00150848 0.0296573 -0.0139437 0.000423 0.0301791 0.103437 0.0421276 2650 
15 1 -0.00188686 -0.00369517 -0.0128259 0.000423 -0.110969 -0.128647 -1.09744 2650 
330 1 -0.00736219 -0.00295358 -0.0127251 4.2e-05 -0.0696064 -0.0147686 0.0345761 2650 
3153 1 -0.00176895 -0.00237356 -0.0130025 0.000116 -0.0842498 -0.0374178 0.0430189 2650 
4097 1 -0.00873929 -0.00224977 -0.012746 0.000423 -0.0116536 0.00229875 0.0371095 2650 
1468 1 -0.00430219 -0.00184857 -0.0133298 0.000423 -0.0197001 -0.0470204 -0.0326717 2650 
3551 1 -0.00630601 0.000202703 -0.0131182 0.000423 -0.015336 0.00523015 0.00637389 2650 
541 1 -0.00622384 0.000651866 -0.012752 4.2e-05 -0.0143735 0.00954058 0.00936495 2650 
4126 1 -0.00448688 4.17411e-05 -0.0133073 0.000116 -0.0261531 0.0084042 0.00402279 2650 
2525 1 -0.004063 0.00145735 -0.013231 4.2e-05 0 -0.011753 0 2650 
2619 1 -0.005851 0.00227335 -0.012854 0.000116 0 -0.011753 0 2650 
2609 1 -0.00886 0.00299735 -0.013248 0.000116 0 -0.011753 0 2650 
3880 1 -0.010277 0.00318935 -0.012913 0.000423 0 -0.011753 0 2650 
3645 1 -0.00559462 0.00334088 -0.0126572 0.000423 -0.0357151 -0.0039173 0.0164321 2650 
3917 1 -0.003984 0.00375835 -0.012703 0.000116 0 -0.011753 0 2650 
2918 1 -0.00771189 0.00469528 -0.013356 0.000116 -0.0132236 0.0205789 -0.0380223 2650 
1032 1 -0.00764307 0.00401208 -0.0131652 0.000423 -0.0173367 -0.00904293 -0.0556269 2650 
2912 1 -0.00568874 0.00461945 -0.0132082 0.000116 0.0344903 0.00459865 -0.0369002 2650 
3322 1 -0.00364919 0.00445671 -0.0131352 0.000423 0.0155165 0.0110838 0.0251988 2650 
2059 1 -0.003583 0.00396735 -0.012756 0.000116 0 -0.011753 0 2650 
2596 1 -0.00907679 0.005458 -0.0131657 0.000116 -0.0442582 -0.0431064 0.0384975 2650 
450 1 -0.00650994 0.00506519 -0.0132783 0.000656 0.0112424 0.0469319 0.00733295 2650 
104 1 -0.00291799 0.00574366 -0.0132797 4.2e-05 -0.00674979 0.0150481 0.0116551 2650 
1427 1 -0.002948 0.00629835 -0.013376 4.2e-05 0 -0.011753 0 2650 
4078 1 -0.00893955 0.00633512 -0.0127195 0.000423 -0.0196946 -0.00953845 0.00130892 2650 
2913 1 -0.00742229 0.00689709 -0.0131279 0.000116 -0.028239 -0.0119827 -0.0130286 2650 
1237 1 -0.0101846 0.00766568 -0.0130328 0.000423 0.0237684 0.0023045 0.00822531 2650 
3259 1 -0.00865973 0.00762632 -0.0130576 0.000116 -0.0089878 -0.00810535 0.00538998 2650 
1584 1 -0.00140136 0.00718348 -0.0133301 0.000423 -0.00963006 0.0395817 0.04039 2650 
1795 1 -0.00874967 0.00829573 -0.0129736 0.000423 0.00165908 -0.0118589 -0.000959055 2650 
1769 1 -0.00631665 0.00863449 -0.0133177 0.000656 -0.0139492 0.00030421 -0.000268195 2650 
1250 1 -0.00779282 0.00887012 -0.0129619 0.000423 -0.0109693 -0.0170514 -0.0143142 2650 
205 1 -0.000744 0.00901435 -0.01334 0.000116 0 -0.011753 0 2650 
2483 1 -0.00908253 0.00951168 -0.0131532 0.000116 0.00258646 -0.0218162 0.0129531 2650 
949 1 -0.00641668 0.0108436 -0.0127227 0.000116 -0.0176518 0.0277962 -0.00593252 2650 
1775 1 -0.00822767 0.0117645 -0.013042 0.000423 -7.29146e-05 -0.011186 -0.000346901 2650 
959 1 -0.00720478 0.0124077 -0.0128937 0.000116 -0.0723779 0.0623805 -0.0339909 2650 
3932 1 -0.00491851 0.0202357 -0.01295 0.000116 0.03152 0.0411719 0.0597923 2650 
3946 1 -0.0679673 -0.0103463 -0.0116472 4.2e-05 -1.71305 3.44695 9.99651 2650 
3256 1 -0.00207353 -0.0040944 -0.0120273 0.000116 -0.196919 -0.224179 -0.98346 2650 
545 1 -0.002328 -0.00251765 -0.012432 4.2e-05 0 -0.011753 0 2650 
1022 1 -0.00235416 -0.00269841 -0.0119954 0.000423 -0.0836791 0.078608 -0.171488 2650 
2172 1 -0.00858041 -0.00165966 -0.0123969 0.000116 0.0554355 0.00150652 -0.0523356 2650 
800 1 -0.00665166 -0.00174179 -0.0122921 0.000423 -0.00429202 -0.0325333 0.0439645 2650 
2468 1 -0.003167 -0.00214465 -0.012131 0.000423 0 -0.011753 0 2650 
1763 1 -0.001143 -0.00185665 -0.012442 0.000656 0 -0.011753 0 2650 
2645 1 -0.00585544 -0.00116465 -0.0118415 0.000656 -0.0129362 0.00179202 0.059477 2650 
3191 1 -0.00705675 -0.000308369 -0.0125345 0.000656 -0.0197381 0.00193499 -0.0014393 2650 
1422 1 -0.003881 -1.06538e-05 -0.012349 4.2e-05 0 -0.011753 0 2650 
388 1 -0.0073463 0.00154508 -0.0120768 0.000116 0.0212466 0.0335067 0.0250458 2650 
3201 1 -0.00625297 0.00127358 -0.0123901 0.000423 -0.00608722 0.0216696 0.0089772 2650 
1799 1 -0.00323092 0.000797698 -0.012057 0.000423 7.10678e-05 -0.0118308 4.63239e-05 2650 
3389 1 -0.010415 0.00225535 -0.012026 0.000116 0 -0.011753 0 2650 
3956 1 -0.0090363 0.00167158 -0.0123067 0.000656 -0.000640959 -0.0104529 -0.000368355 2650 
2285 1 -0.011683 0.00389902 -0.0118444 0.000116 0.0175306 0.0103543 0.003719 2650 
411 1 -0.010425 0.00457223 -0.01209 0.000116 -0.00787832 -0.00657823 -8.20909e-05 2650 
3826 1 -0.009208 0.00415035 -0.012552 0.000116 0 -0.011753 0 2650 
708 1 -0.00277624 0.00453195 -0.0122353 0.000423 -0.00318183 -0.00599768 -0.010405 2650 
3380 1 -0.00222615 0.00446726 -0.0123783 0.000116 -0.00133046 -0.0120531 0.0302183 2650 
2194 1 -0.00230799 0.00465097 -0.0124814 4.2e-05 0.00491046 0.00111596 0.00228026 2650 
2957 1 -0.00174641 0.00427064 -0.0122599 4.2e-05 0.0205169 0.0248349 -0.000218849 2650 
3316 1 -0.008979 0.00490335 -0.012376 0.000423 0 -0.011753 0 2650 
1261 1 -0.00744843 0.00495265 -0.0124298 0.000423 -0.000148786 -0.00207045 -0.0014312 2650 
3362 1 -0.00266461 0.00511049 -0.0122842 0.000116 0.000350619 -0.00253681 -0.00404217 2650 
2219 1 -0.00344336 0.00614202 -0.0124873 0.000423 0.0573797 0.046564 0.0166916 2650 
3446 1 -0.002592 0.00591035 -0.012627 0.000423 0 -0.011753 0 2650 
3030 1 -0.001189 0.00641335 -0.012596 0.000116 0 -0.011753 0 2650 
445 1 -0.00960696 0.00732102 -0.0121319 0.000656 -0.0127165 0.00458809 -0.0310561 2650 
4318 1 -0.00860429 0.00767903 -0.012327 0.000423 -0.00589465 -0.00768269 0.00318441 2650 
1495 1 -0.004483 0.00788135 -0.012591 0.000116 0 -0.011753 0 2650 
1519 1 -0.00274249 0.00788032 -0.0125263 0.000116 -0.0494896 0.0341374 0.0501115 2650 
2344 1 -0.000994982 0.00753231 -0.0119655 0.000423 0.00597873 -0.023338 -0.0226217 2650 
3847 1 -0.00965084 0.0086103 -0.0124312 0.000656 0.00191913 0.0130802 -0.00623859 2650 
2453 1 -0.00631133 0.00848606 -0.0118719 0.000423 0.00439844 0.0194243 -0.044432 2650 
3173 1 -0.004958 0.00854235 -0.012321 4.2e-05 0 -0.011753 0 2650 
3684 1 -0.00431835 0.00812077 -0.0124391 0.000116 0.00413104 -0.0230128 -0.00941473 2650 
4002 1 -0.000443 0.00857435 -0.01223 0.000116 0 -0.011753 0 2650 
4179 1 -0.00713046 0.00891937 -0.012149 0.000423 -0.00767678 -0.0221048 -0.00852388 2650 
2630 1 -0.001036 0.00875035 -0.012074 4.2e-05 0 -0.011753 0 2650 
289 1 -0.00134486 0.00975747 -0.0124573 0.000116 -0.0188061 -0.000940224 -0.0594549 2650 
1423 1 -0.00145 0.0102303 -0.012526 4.2e-05 0 -0.011753 0 2650 
3106 1 -0.00730433 0.0118381 -0.0122584 0.000423 -0.042507 0.0242048 -0.0146805 2650 
1802 1 -0.00413987 0.0124588 -0.0120502 0.000423 0.00500259 -0.000364755 -0.0111755 2650 
2205 1 -0.00511291 0.0132766 -0.0120407 0.000656 -0.00206311 0.000112593 -0.00429342 2650 
1143 1 -0.000830378 0.0144473 -0.0125129 0.000423 0.0070315 0.0110531 -0.00616027 2650 
675 1 -0.00516146 0.0213387 -0.0122637 0.000423 -0.0171714 0.0807922 0.0289201 2650 
2413 1 -0.00903457 -0.00288988 -0.0112352 4.2e-05 -0.0826713 -0.0311639 0.0536157 2650 
3505 1 -0.006952 -0.00284865 -0.011235 4.2e-05 0 -0.011753 0 2650 
440 1 -0.00061 -0.00154665 -0.011485 4.2e-05 0 -0.011753 0 2650 
756 1 -0.0060287 -0.000238794 -0.0118085 0.000116 0.041834 0.0697036 0.0154272 2650 
2939 1 -0.00937407 1.96279e-05 -0.0113373 0.000116 -0.00341769 -0.0275913 0.0148239 2650 
3200 1 -0.00838339 0.000243149 -0.0113579 0.000423 -0.0275514 -0.0115593 0.0194145 2650 
1063 1 -0.009531 0.00217935 -0.011683 0.000116 0 -0.011753 0 2650 