ITEM: TIMESTEP
5442192
ITEM: NUMBER OF ATOMS
4356
ITEM: BOX BOUNDS ff ff ff
-0.15 0.15
-0.15 0.06
-0.15 0.15
ITEM: ATOMS id type x y z radius vx vy vz density 
3308 1 -0.0106919 -0.0587685 -0.0677395 0.000423 -2.53473 -0.272524 0.400078 2650 
1520 1 -0.017461 -0.0536465 -0.0666344 0.000116 6.62806 -0.358059 -1.73683 2650 
4139 1 -0.019601 -0.0574407 -0.0660365 0.000116 -1.17076 0.26915 0.347505 2650 
2855 1 -0.0224024 -0.0579693 -0.0652176 4.2e-05 -1.34882 0.204701 0.463323 2650 
1563 1 -0.0225674 -0.0563765 -0.0647585 0.000423 -3.19915 0.442668 1.11486 2650 
4016 1 -0.0294932 -0.0517439 -0.0622509 0.000116 6.1501 2.02291 -2.9138 2650 
4331 1 -0.030126 -0.0483214 -0.0619471 0.000116 -2.05629 -2.03111 1.00001 2650 
1961 1 -0.037989 -0.0549217 -0.0574618 0.000116 1.67224 0.405732 -1.10555 2650 
1591 1 -0.0384239 -0.0464234 -0.0568028 0.000423 -1.47232 0.283428 0.995945 2650 
1417 1 -0.0407189 -0.0541726 -0.0555607 0.000116 -1.77814 -0.103391 1.30315 2650 
208 1 -0.0409862 -0.0603015 -0.0515168 0.000116 -4.20847 2.81611 1.05374 2650 
4150 1 -0.055226 -0.0559232 -0.0411717 0.000116 0.803886 0.806254 -1.0783 2650 
2256 1 -0.0611562 -0.0451216 -0.0317008 0.000116 -0.318431 -0.112167 0.614307 2650 
51 1 -0.0616582 -0.0454113 -0.0300202 0.000423 0.411944 0.415788 -0.846089 2650 
1051 1 -0.064335 -0.0626837 -0.0243011 0.000116 0.017866 -0.00114376 -0.772122 2650 
3425 1 -0.0647325 -0.0617267 -0.0226273 0.000423 -0.439249 -0.050602 1.35023 2650 
2201 1 -0.065833 -0.0496006 -0.0183634 0.000656 0.0593208 0.678394 -0.212665 2650 
747 1 -0.0659016 -0.062684 -0.0166646 0.000116 -2.62076 -1.50387e-10 -13.8932 2650 
4316 1 -0.0664885 -0.0617161 -0.0167438 0.000423 -0.253406 -0.0096785 1.22996 2650 
2162 1 -0.0666029 -0.0607533 -0.0165961 0.000116 2.77025 7.76215 -0.0867842 2650 
19 1 -0.0672412 -0.0622907 -0.0134748 0.000423 0.113879 -0.00514269 -0.568276 2650 
3692 1 -0.068525 -0.0534077 -0.00702487 0.000116 0.0552209 0.250762 -0.538659 2650 
2274 1 -0.0687821 -0.0594195 -0.00374834 0.000116 0.370226 0.451635 -6.79364 2650 
1060 1 -0.0677187 -0.0455124 0.0126172 0.000116 0.566824 -0.290939 3.04224 2650 
649 1 -0.0675826 -0.0612956 0.0133272 0.000116 -0.26162 0.967894 -1.32669 2650 
2083 1 -0.06702 -0.0538375 0.0162336 4.2e-05 0.160344 0.0952721 0.661978 2650 
1314 1 -0.0666202 -0.0598583 0.0178032 4.2e-05 -1.52131 -0.791586 -5.6928 2650 
2790 1 -0.065722 -0.0499005 0.0195851 0.000423 0.692364 -0.188506 2.32338 2650 
2557 1 -0.0641843 -0.0460501 0.0241521 0.000423 0.576184 0.0815772 1.53121 2650 
1208 1 -0.0536947 -0.0483191 0.0432676 4.2e-05 0.357083 -4.88207 0.443137 2650 
3331 1 -0.0527243 -0.0542703 0.0438532 0.000423 1.83479 0.150411 2.20595 2650 
2612 1 -0.0473106 -0.0582391 0.0500672 0.000116 -1.48413 0.608313 -1.40241 2650 
1239 1 -0.0452701 -0.0569464 0.0515128 0.000423 1.12872 -0.170651 0.991937 2650 
2954 1 -0.0422629 -0.0476542 0.0543955 0.000116 -0.960018 -0.835927 -0.745892 2650 
3348 1 -0.0431196 -0.0450619 0.0537189 0.000116 -0.179033 -0.970254 -0.143708 2650 
1270 1 -0.0411079 -0.0618118 0.0552935 0.000116 -1.2758 -0.395117 -0.65483 2650 
2667 1 -0.0313404 -0.0617088 0.0609978 0.000423 2.03943 -0.913992 1.04785 2650 
3957 1 -0.031065 -0.0517743 0.0608783 0.000656 1.91283 0.408174 0.976075 2650 
689 1 -0.0286644 -0.0623255 0.0623001 0.000423 1.34983 0.0312924 0.620538 2650 
343 1 -0.0291746 -0.0493885 0.0620628 0.000423 2.32289 0.279394 1.09195 2650 
3785 1 -0.0256105 -0.0571384 0.0639463 0.000116 -3.23897 0.538337 -1.29721 2650 
3531 1 -0.0265825 -0.0515545 0.0632164 0.000423 1.90813 -0.482577 0.80237 2650 
575 1 -0.0252891 -0.0491556 0.0637449 0.000423 1.09085 -1.03289 0.432767 2650 
3069 1 -0.0234625 -0.0483841 0.0648438 4.2e-05 2.39139 -1.1171 0.86528 2650 
2395 1 -0.0114537 -0.0574188 0.0678029 0.000116 -0.24105 -4.93095 0.439664 2650 
758 1 -0.0134811 -0.0539422 0.0675522 0.000116 -15.7837 0.0459133 -3.1499 2650 
1463 1 -0.0123989 -0.0525702 0.0674479 0.000423 2.35749 -0.147381 0.433378 2650 
3840 1 -0.00504573 -0.0603767 0.0681597 0.000656 2.49121 -0.0799973 0.184419 2650 
893 1 -0.00603048 -0.0527562 0.0683124 0.000423 1.51268 -0.125915 0.133536 2650 
4133 1 -0.0104051 -0.0466503 0.0680937 0.000116 -0.0286067 0.0743836 -0.00437124 2650 
3918 1 -0.00371241 -0.055659 0.0687841 0.000116 -12.9865 0.678505 -0.7009 2650 
753 1 -0.00503434 -0.0322901 -0.0686999 0.000116 -1.95925 1.98826 0.143574 2650 
1833 1 -0.00140493 -0.0225068 -0.0688698 0.000116 -2.79976 -0.616975 0.0571144 2650 
1870 1 -0.000152513 -0.00543757 -0.0689579 4.2e-05 -2.25135 -0.0454786 0.00497929 2650 
468 1 -0.000115929 -0.0435439 -0.068578 0.000423 -2.76962 0.433674 0.00468197 2650 
1912 1 -0.00953309 -0.0386375 -0.0679122 0.000423 -2.35321 -0.0551866 0.330329 2650 
1372 1 -0.0036652 -0.0322331 -0.0684801 0.000423 -2.71355 -0.147852 0.145235 2650 
91 1 -0.00383033 -0.0296424 -0.0686258 0.000116 -4.00994 -0.138698 -0.207184 2650 
2208 1 -0.00232461 -0.0296574 -0.0683067 0.000656 -2.55582 0.0791492 0.0869683 2650 
2679 1 -0.00399082 -0.0277283 -0.0684619 0.000423 -3.25657 -0.0356418 0.189834 2650 
4323 1 -0.00293857 -0.0283232 -0.0685151 0.000423 -2.85156 0.245113 0.122305 2650 
1990 1 -0.00187756 -0.0283649 -0.0683204 0.000656 -2.84258 0.207617 0.0781267 2650 
3527 1 -0.0071295 -0.0265692 -0.0682065 0.000423 -2.36045 -0.0827415 0.246733 2650 
2546 1 -0.00907176 -0.0246451 -0.0679754 0.000423 -2.57422 -0.273981 0.343547 2650 
1433 1 -0.000941322 -0.0220128 -0.0683398 0.000656 -2.9002 -0.357024 0.0399445 2650 
835 1 -0.00438576 -0.020642 -0.0683877 0.000116 -0.376528 0.176041 -1.62976 2650 
1325 1 -0.00507657 -0.0146835 -0.0681574 0.000656 -2.39875 0.26516 0.178666 2650 
2000 1 -0.00594994 -0.0121765 -0.0683194 0.000423 0.188939 1.30618 -0.0164547 2650 
1503 1 -0.00844003 -0.010206 -0.0683651 0.000116 -2.20209 2.51435 0.27266 2650 
1207 1 -0.00946903 -0.00714772 -0.0683048 4.2e-05 -1.61753 3.42383 0.224236 2650 
3647 1 -0.00322965 -0.00405603 -0.068502 0.000423 -3.27217 -0.108039 0.154272 2650 
3444 1 -0.009031 -0.00111737 -0.0679808 0.000423 -2.85662 0.228692 0.379491 2650 
2211 1 -0.0115202 -0.0392933 -0.0673683 0.000656 -2.36724 -0.106877 0.404805 2650 
935 1 -0.013698 -0.0231467 -0.0671961 0.000423 -2.02955 -1.09162 0.413726 2650 
2066 1 -0.0140934 -0.0133872 -0.067427 0.000116 -2.78674 0.150493 0.582478 2650 
1210 1 -0.0140469 -0.00976938 -0.0675122 4.2e-05 -3.1319 -0.186734 0.651636 2650 
1943 1 -0.0145265 -0.00929343 -0.067335 0.000116 5.71451 0.509071 -1.23282 2650 
1587 1 -0.0171776 -0.027007 -0.0663918 0.000423 -0.51451 -0.693848 0.133119 2650 
367 1 -0.0141927 -0.01913 -0.0670934 0.000423 -2.44669 -0.228312 0.517565 2650 
1170 1 -0.0157644 -0.0181364 -0.067056 0.000116 -3.1555 -0.165221 0.741839 2650 
2103 1 -0.0197789 -0.0216141 -0.0656639 0.000423 -2.59465 -0.0370971 0.781548 2650 
4025 1 -0.0194689 -0.0166857 -0.0660756 0.000116 -3.07153 0.139337 0.905012 2650 
2060 1 -0.0211924 -0.00816085 -0.0655432 0.000116 0.407452 2.38211 -0.131743 2650 
14 1 -0.022214 -0.0299962 -0.0648806 0.000423 -2.30026 -0.00244078 0.787568 2650 
3024 1 -0.00282815 -0.0209211 -0.0650546 0.000116 -4.37733 0.970379 3.44163 2650 
1356 1 -0.0220853 -0.0173081 -0.0649245 0.000423 -2.2551 -0.629382 0.767108 2650 
1655 1 -0.0226876 -0.043898 -0.0644707 0.000656 -1.36632 0.0849013 0.480813 2650 
1020 1 -0.022703 -0.0162206 -0.0647111 0.000423 -1.86785 0.492533 0.655314 2650 
3066 1 -0.0252848 -0.0154385 -0.0641552 4.2e-05 -1.51101 -0.182744 0.59552 2650 
420 1 -0.0267989 -0.0127929 -0.0634574 0.000116 -2.94106 -0.231383 1.24205 2650 
4106 1 -0.0262374 -0.00888992 -0.0633605 0.000423 -2.72329 0.475485 1.12771 2650 
2337 1 -0.0252826 -0.00323726 -0.0637475 0.000423 -3.01426 0.210387 1.19547 2650 
2560 1 -0.0274021 -0.0378754 -0.0628656 0.000423 -2.45277 0.172276 1.06912 2650 
355 1 -0.0295517 -0.0247987 -0.0618842 0.000423 -2.49883 0.0789329 1.19328 2650 
400 1 -0.0294599 -0.00810103 -0.0622666 0.000116 -2.9052 -0.159587 1.37453 2650 
2052 1 -0.0295984 -0.00844665 -0.0622009 0.000116 -2.89686 -0.185802 1.37848 2650 
2875 1 -0.0313866 -0.00865198 -0.0609549 0.000423 -3.31697 -0.3023 0.570043 2650 
3502 1 -0.0310861 -0.00483252 -0.0615537 4.2e-05 -2.85694 -0.104248 1.44282 2650 
1598 1 -0.031358 -0.00500533 -0.0613327 0.000116 -1.07286 -0.14341 0.54853 2650 
3227 1 -0.032835 -0.0329798 -0.0602064 0.000423 -2.67125 -0.390846 1.45683 2650 
821 1 -0.033596 -0.0330449 -0.0597851 0.000423 -2.37659 0.25082 1.33551 2650 
2151 1 -0.0339483 -0.00700654 -0.0599378 0.000116 -2.72524 -0.116912 1.54355 2650 
2465 1 -0.0349308 -0.0435861 -0.0590151 0.000423 -1.77837 0.247136 1.05261 2650 
1202 1 -0.035557 -0.0219265 -0.0590839 4.2e-05 -1.55091 0.0404925 0.933348 2650 
319 1 -0.0364318 -0.0190755 -0.0584615 0.000116 -2.72642 -0.166219 1.69904 2650 
3204 1 -0.0365052 -0.0262243 -0.0580545 0.000423 -2.23325 0.0426807 1.40429 2650 
3328 1 -0.0366264 -0.024997 -0.0579781 0.000423 -2.35849 0.167216 1.48993 2650 
1002 1 -0.038934 -0.0348854 -0.0561725 0.000656 -2.46962 -0.241108 1.71173 2650 
3875 1 -0.038668 -0.0307587 -0.0566369 0.000423 -2.07067 0.22319 1.41372 2650 
152 1 -0.0391557 -0.0218637 -0.0563008 0.000423 -2.41409 0.343675 1.67894 2650 
4017 1 -0.0401253 -0.00631304 -0.0559909 0.000116 0.12118 -0.262704 -0.0868421 2650 
633 1 -0.0419156 -0.0144024 -0.0546635 0.000116 -2.56395 -0.170716 1.96602 2650 
3040 1 -0.0426919 -0.00299493 -0.0540594 0.000116 -1.4648 -0.172742 1.15679 2650 
3619 1 -0.0414283 -0.000785766 -0.0541548 4.2e-05 5.5313 -0.231322 -4.60806 2650 
2862 1 -0.0435148 -0.0276308 -0.0527036 0.000656 -2.19776 0.152742 1.81458 2650 
3422 1 -0.0439127 -0.0259575 -0.0526747 0.000423 -1.57443 -0.153769 1.31253 2650 
3718 1 -0.0449177 -0.0247451 -0.0523222 4.2e-05 3.45573 0.545482 -2.96668 2650 
3522 1 -0.0450323 -0.0281361 -0.0517208 0.000423 -1.19772 -0.261233 1.04283 2650 
3391 1 -0.0460189 -0.0189674 -0.0513563 4.2e-05 -2.38316 0.0257646 2.13549 2650 
3248 1 -0.0474018 -0.00904215 -0.0499809 0.000116 -2.329 -0.197226 2.20882 2650 
844 1 -0.0486295 -0.0406414 -0.0487872 0.000116 -1.54753 -0.339948 1.54253 2650 
1957 1 -0.048758 -0.0182272 -0.0486588 0.000116 -2.34437 0.0965278 2.34915 2650 
1343 1 -0.0483787 -0.0147518 -0.0486051 0.000423 -2.19085 -0.20517 2.18064 2650 
4320 1 -0.0496393 -0.0334619 -0.0473169 0.000423 -1.62795 0.0527158 1.70785 2650 
4021 1 -0.0505153 -0.000692824 -0.0468319 0.000116 -0.282948 -0.0473927 0.305202 2650 
615 1 -0.0507501 -0.0161153 -0.0465774 0.000116 -2.22768 -0.137267 2.42725 2650 
4250 1 -0.051859 -0.0334293 -0.0453394 0.000116 -0.281653 -0.705887 0.322153 2650 
3964 1 -0.0522005 -0.0284067 -0.0444754 0.000423 -1.62325 0.0403569 1.9052 2650 
2051 1 -0.0524088 -0.0191369 -0.0447028 0.000116 -0.598116 0.896714 0.701215 2650 
1818 1 -0.0527488 -0.0168342 -0.0443011 0.000116 -2.06003 0.145546 2.45286 2650 
3945 1 -0.0531263 -0.000988959 -0.0439637 4.2e-05 4.40777 -0.0305221 -5.3264 2650 
1647 1 -0.0461595 -0.0208997 -0.0429379 4.2e-05 8.609 -0.629308 0.0441874 2650 
838 1 -0.0535157 -0.0100479 -0.0433715 0.000116 -2.02346 -0.201166 2.49672 2650 
3196 1 -0.0187147 -0.00702551 -0.0429498 0.000423 -2.72187 -0.345469 -6.33162 2650 
2247 1 -0.0537677 -0.0273625 -0.0425674 0.000423 -1.49385 0.13527 1.88692 2650 
2605 1 -0.0543585 -0.0142718 -0.0423105 0.000116 -2.27442 0.0756943 2.92207 2650 
1282 1 -0.0552874 -0.0158828 -0.0410893 0.000116 -1.91097 -0.222668 2.57129 2650 
981 1 -0.0559748 -0.0323651 -0.0402745 4.2e-05 2.1322 -0.671488 -2.9634 2650 
1363 1 -0.0559782 -0.0189059 -0.0396156 0.000423 -1.85703 -0.392783 2.62405 2650 
378 1 -0.0556883 -0.0090767 -0.0400221 0.000423 -1.63445 -0.0033581 2.27423 2650 
55 1 -0.0561957 -0.0247754 -0.0393064 0.000423 -1.31345 0.206128 1.87783 2650 
3330 1 -0.0564549 -0.0106419 -0.0389333 0.000423 -1.50284 0.449308 2.17918 2650 
3974 1 -0.0566567 -0.0379697 -0.0386389 0.000423 -1.20425 -0.567226 1.76581 2650 
2578 1 -0.0571167 -0.0266826 -0.0379557 0.000423 -1.40822 0.0812287 2.11912 2650 
3516 1 -0.056787 -0.00176346 -0.0380321 0.000656 -1.58121 0.479253 2.36095 2650 
3734 1 -0.0583305 -0.019253 -0.0356197 0.000656 -1.6342 -0.156411 2.67617 2650 
3960 1 -0.058445 -0.0138386 -0.0358767 0.000423 -1.67529 -0.447734 2.72913 2650 
146 1 -0.0590751 -0.0199437 -0.0348295 0.000423 -1.60134 -0.187747 2.71607 2650 
2738 1 -0.0594384 -0.0142244 -0.0349612 4.2e-05 -1.63692 -0.254069 2.78297 2650 
312 1 -0.0591042 -0.00204964 -0.0353797 0.000116 -1.47933 -0.05234 2.47133 2650 
1537 1 -0.0593748 -0.000587708 -0.0350691 4.2e-05 -2.0089 0.207241 3.40123 2650 
482 1 -0.0595799 -0.0212179 -0.0339585 0.000423 -0.932654 0.424347 1.63633 2650 
1638 1 -0.0605693 -0.0123468 -0.0328085 0.000116 7.43779 -2.02981 -13.7313 2650 
1813 1 -0.0608266 -0.0389777 -0.0316714 0.000423 -1.29221 -0.253409 2.48177 2650 
3946 1 -0.0602075 -0.0172084 -0.0314698 4.2e-05 -4.08699 3.1551 9.42914 2650 
2055 1 -0.0553659 -0.0407931 -0.030129 0.000116 4.8593 0.0541552 -10.6318 2650 
4177 1 -0.0614258 -0.038202 -0.0304931 0.000423 -1.20891 -0.242791 2.43524 2650 
1185 1 -0.0609985 -0.0167551 -0.029452 0.000116 -0.99742 -2.28062 0.0959916 2650 
3349 1 -0.0327441 -0.00415151 -0.0281293 0.000116 -4.96559 -0.105418 -4.2845 2650 
427 1 -0.0632282 -0.0104963 -0.0273352 0.000116 -0.288604 0.258055 0.667562 2650 
2672 1 -0.0631744 -0.0139731 -0.0266824 0.000423 -1.24052 -0.222263 2.93709 2650 
1619 1 -0.0634936 -0.0133303 -0.026713 0.000116 -1.11357 0.163577 2.64682 2650 
2920 1 -0.0639213 -0.0324686 -0.0256726 0.000116 -1.16196 -0.40782 2.89313 2650 
843 1 -0.0643736 -0.0429673 -0.0245166 0.000116 -0.329282 0.00611368 0.864603 2650 
1781 1 -0.0637035 -0.0412859 -0.0251336 0.000423 -0.150586 0.793279 -0.321733 2650 
4303 1 -0.0642847 -0.0272681 -0.0238837 0.000423 -0.682204 -0.0631701 1.8362 2650 
3831 1 -0.064705 -0.0193892 -0.0238428 4.2e-05 -2.25727 -1.23225 6.12581 2650 
3426 1 -0.0644194 -0.0375786 -0.0235179 0.000423 -1.01836 -0.655987 2.78946 2650 
980 1 -0.0615845 -0.00461151 -0.0236324 4.2e-05 -9.62256 -0.127121 -3.69255 2650 
1922 1 -0.0646755 -0.0165426 -0.0228043 0.000423 -1.04193 -0.144009 2.95502 2650 
3580 1 -0.0643214 -0.0204599 -0.0220275 0.000116 0.132147 -0.665129 1.49151 2650 
2386 1 -0.0653008 -0.019169 -0.0219278 0.000116 -0.989887 -0.24876 2.94788 2650 
1996 1 -0.0657012 -0.0444577 -0.0196546 0.000423 -0.748415 0.391069 2.50179 2650 
1760 1 -0.049429 -0.000630827 -0.0189948 4.2e-05 1.12227 -0.16397 -3.67437 2650 
1500 1 -0.000628992 -0.00505916 -0.0178925 0.000116 -0.361911 -0.668628 -1.62523 2650 
606 1 -0.000183 0.00331201 -0.016592 0.000116 0 -0.011753 0 2650 
188 1 -0.000492993 0.00863784 -0.0168156 0.000116 -0.0156058 0.0716121 0.00169132 2650 
2713 1 -0.000763 0.010283 -0.016767 0.000116 0 -0.011753 0 2650 
3337 1 -0.0666936 -0.00924403 -0.0159661 0.000423 -0.747107 -0.196747 3.12082 2650 
736 1 -0.003429 0.00123701 -0.016474 0.000116 0 -0.011753 0 2650 
150 1 -0.00263591 0.000976167 -0.0162198 0.000423 -0.00913371 0.00501626 0.00203877 2650 
676 1 -0.00241537 0.00191932 -0.0159828 0.000423 -0.0130706 -0.00428427 0.0172903 2650 
1679 1 -0.0036345 0.00270021 -0.0159668 0.000423 -0.000267589 -0.00703629 -0.00433961 2650 
2013 1 -0.00275742 0.00290006 -0.016149 0.000423 0.00298908 -0.00809762 0.00112683 2650 
3589 1 -0.00307985 0.00473202 -0.0163782 0.000116 0.155503 0.064687 -0.0402711 2650 
2301 1 -0.004222 0.00508501 -0.016305 4.2e-05 0 -0.011753 0 2650 
3121 1 -0.00358793 0.00505083 -0.0160874 0.000423 0.0295457 0.00139416 -0.0105356 2650 
1388 1 -0.000433015 0.00518235 -0.0161719 0.000116 -0.039288 0.0021603 0.0169103 2650 
302 1 -0.000533637 0.00622503 -0.0163991 0.000116 0.0171051 0.0203877 0.0103663 2650 
1219 1 -0.000829122 0.0067548 -0.0158532 0.000656 0.0133734 0.0239605 0.00857101 2650 
3934 1 -0.001977 0.00807401 -0.016218 0.000116 0 -0.011753 0 2650 
142 1 -0.00348613 0.0228482 -0.0160486 0.000423 -0.0600809 0.0373384 0.0570253 2650 
4245 1 -0.000792727 0.0391406 -0.0164197 0.000116 -0.131082 0.152483 0.00432583 2650 
1357 1 -0.00361968 0.0467904 -0.0160111 0.000423 0.0681058 0.285169 -0.0155587 2650 
2793 1 -0.00120081 -0.000845714 -0.0155823 0.000423 -0.196801 0.282111 -0.308846 2650 
3043 1 -0.00135166 -0.000520962 -0.0150028 0.000116 -0.16517 0.282697 -0.415627 2650 
623 1 -0.0068716 0.000598367 -0.0151347 0.000116 -0.00477071 -0.00938024 -0.0420845 2650 
1991 1 -0.00495651 0.000551595 -0.0153506 0.000656 -0.0197706 -0.00214867 0.00868857 2650 
222 1 -0.0019767 0.00046158 -0.0151256 0.000656 -0.00713779 -0.040298 -0.0148088 2650 
2922 1 -0.00642936 0.00169078 -0.0152253 0.000116 -0.0108987 -0.0113206 0.0393947 2650 
3637 1 -0.00366418 0.00204343 -0.0150154 0.000423 -0.00927015 0.0142513 -0.0137177 2650 
3239 1 -0.00290585 0.00174009 -0.0157571 0.000116 -0.0332144 0.00168872 0.00188105 2650 
2399 1 -0.002418 0.00352601 -0.015541 0.000116 0 -0.011753 0 2650 
2283 1 -0.00174619 0.00399717 -0.0152779 0.000116 -0.0318858 -0.01081 -0.0228231 2650 
2313 1 -0.00497469 0.00529962 -0.0152832 0.000656 0.00856952 0.0288131 0.00982472 2650 
2438 1 -0.00573281 0.00670893 -0.0153235 0.000423 0.00192492 -0.00355692 -0.0258764 2650 
978 1 -0.00515547 0.00688394 -0.0155009 0.000116 0.015313 -0.00383775 -0.0151954 2650 
1620 1 -0.00382068 0.00738553 -0.0156025 0.000116 0.0529387 0.0514306 -0.00503745 2650 
2969 1 -0.00131505 0.00780056 -0.0150944 0.000656 -0.00819712 0.0280435 0.000260256 2650 
1483 1 -0.000305163 0.00822601 -0.0152215 0.000423 -0.0010087 0.0213686 -0.00667363 2650 
86 1 -0.002064 0.00933001 -0.015055 0.000116 0 -0.011753 0 2650 
3177 1 -0.001068 0.00913001 -0.015412 4.2e-05 0 -0.011753 0 2650 
1228 1 -0.00141786 0.00939633 -0.0150046 0.000423 -0.00123313 -0.0118667 -0.000623591 2650 
3830 1 -0.006879 0.00962601 -0.015411 4.2e-05 0 -0.011753 0 2650 
1617 1 -0.0039349 0.00962343 -0.0157895 0.000116 0.0304875 0.00968505 -0.0492471 2650 
371 1 -0.000467827 0.010063 -0.015187 0.000423 0.000724313 -0.00601752 -0.0061741 2650 
938 1 -0.000869 0.010536 -0.015416 0.000116 0 -0.011753 0 2650 
568 1 -0.00353944 0.0162709 -0.0156349 0.000423 0.0646767 0.0324089 0.0265592 2650 
913 1 -0.000845347 0.0232084 -0.0156557 0.000423 -0.0131935 0.0940792 0.0439723 2650 
4360 1 -0.0673575 -0.0374502 -0.0144221 0.000116 -0.787429 -0.245325 3.67764 2650 
786 1 -0.066979 -0.0119625 -0.0147229 0.000423 -0.68374 -0.229613 3.11054 2650 
2835 1 -0.0672599 -0.00849053 -0.0148705 0.000116 1.37346 -0.894574 -6.21224 2650 
4373 1 -0.0673431 -0.00639178 -0.0148362 4.2e-05 -0.693582 -0.135008 3.14823 2650 
2827 1 -0.00480705 -0.000880405 -0.0142768 0.000116 -0.0201753 -0.0226203 0.0017234 2650 
1053 1 -0.007469 -0.000315987 -0.014946 0.000116 0 -0.011753 0 2650 
2817 1 -0.00194644 -0.000578234 -0.014503 0.000116 0.0100645 -0.056664 0.00630574 2650 
2332 1 -0.0041497 0.000248339 -0.0143679 0.000423 -0.0114447 -0.00779769 0.00753018 2650 
220 1 -0.003649 0.00258901 -0.014897 4.2e-05 0 -0.011753 0 2650 
3365 1 -0.002315 0.00595201 -0.014552 0.000116 0 -0.011753 0 2650 
1618 1 -0.00809019 0.00682504 -0.0146387 0.000116 -0.0222988 0.059375 0.0201275 2650 
3950 1 -0.00683398 0.00660116 -0.0144334 0.000656 -0.0401516 -0.0144037 -0.0334096 2650 
4190 1 -0.00820577 0.00856484 -0.0142835 0.000423 -0.009489 7.8582e-05 0.00632979 2650 
963 1 -0.00529981 0.00822503 -0.0145852 0.000116 -0.029376 -0.065298 -0.0412241 2650 
581 1 -0.00559611 0.0088136 -0.0142816 0.000423 -0.000593495 -0.0101803 -0.00423903 2650 
3669 1 -0.000289634 0.0107632 -0.0146027 0.000423 0.00220454 -0.00743356 -0.00383523 2650 
3644 1 -0.000868245 0.0122999 -0.0144106 0.000423 -0.00432743 0.00711996 -0.0325914 2650 
3216 1 -0.00453636 0.0246287 -0.0143547 0.000423 -0.00544148 0.107266 0.0543995 2650 
3573 1 -0.0065476 0.0339886 -0.0143157 0.000116 0.196545 -0.226716 -0.153339 2650 
2421 1 -0.0669786 -0.0321182 -0.0136045 0.000656 -0.581586 0.129277 2.86331 2650 
1886 1 -0.0188413 -0.00469432 -0.0137845 0.000423 -2.52482 -0.201677 -1.86392 2650 
509 1 -0.00728996 -0.00050027 -0.0137343 0.000116 -0.00521486 0.00944493 -0.0325939 2650 
3733 1 -0.00618084 0.000887601 -0.0139549 0.000656 -0.0232119 0.0173762 0.0152854 2650 
2512 1 -0.00971428 0.00459542 -0.0135566 0.000116 0.002514 -0.0160812 -0.0313025 2650 
1171 1 -0.00849075 0.0044309 -0.013769 0.000116 -0.0146011 -0.0168948 -0.0399555 2650 
3587 1 -0.00584601 0.00413051 -0.0140235 0.000116 -0.0152422 -0.0151231 -0.00566973 2650 
4165 1 -0.00517068 0.00451879 -0.0138546 0.000656 -0.000243806 -0.0320728 0.00848336 2650 
234 1 -0.00152027 0.00401733 -0.0139651 0.000423 0.0351287 -0.0167305 0.0264562 2650 
4296 1 -0.00309847 0.00609005 -0.0139205 0.000423 -0.0431702 0.0421068 0.0473826 2650 
2322 1 -0.00816041 0.00737337 -0.0136461 0.000656 -0.0108707 -0.010103 0.00337555 2650 
1288 1 -0.002467 0.00725501 -0.014044 0.000116 0 -0.011753 0 2650 
4227 1 -0.000225527 0.00720223 -0.014106 0.000116 -0.00921828 -0.0161692 0.0154311 2650 
508 1 -0.0087275 0.00812827 -0.0141702 0.000116 -0.0609474 0.0130298 0.0475554 2650 
3515 1 -0.00702171 0.00794008 -0.0141698 0.000656 -0.0103794 -0.0121819 0.00307219 2650 
2222 1 -0.000363786 0.00809938 -0.0141527 0.000423 -0.00549102 -0.00568171 -0.00117535 2650 
1827 1 -0.00605087 0.00934411 -0.0136171 0.000116 -0.0386186 0.00754243 -0.0442276 2650 
1476 1 -0.006941 0.010055 -0.013435 0.000423 0 -0.011753 0 2650 
233 1 -0.00478344 0.00993609 -0.0141331 0.000423 0.000342891 -0.00976437 -0.0328705 2650 
1986 1 -0.003031 0.00960638 -0.0139587 0.000656 0.00762539 0.0149956 0.0116892 2650 
4257 1 -0.00837295 0.0105716 -0.0141233 0.000116 0.0101268 -0.0416798 0.0036163 2650 
1409 1 -0.00044 0.011035 -0.013868 0.000116 0 -0.011753 0 2650 
3007 1 -0.00111765 0.0114742 -0.0135511 0.000423 -0.0135196 -0.00505473 -0.0280609 2650 
3632 1 -0.0094042 0.0127895 -0.0135833 0.000423 -0.0216519 0.000467483 0.0139725 2650 
478 1 -0.00712081 0.0148092 -0.0135464 0.000423 -0.0255767 0.012458 -0.051203 2650 
2467 1 -0.00157182 0.0294402 -0.0140321 0.000423 0.0301791 0.103437 0.0421276 2650 
2112 1 -0.0673974 -0.0265672 -0.0126706 0.000423 -0.52101 -0.352073 2.77134 2650 
330 1 -0.0072161 -0.00292259 -0.0127976 4.2e-05 -0.0696064 -0.0147686 0.0345761 2650 
4097 1 -0.00871483 -0.00225459 -0.0128239 0.000423 -0.0116536 0.00229875 0.0371095 2650 
1468 1 -0.00426084 -0.00174989 -0.0132612 0.000423 -0.0197001 -0.0470204 -0.0326717 2650 
3153 1 -0.00159213 -0.00229503 -0.0130928 0.000116 -0.0842498 -0.0374178 0.0430189 2650 
3551 1 -0.00627367 0.000191814 -0.0131317 0.000423 -0.016345 0.00465686 0.00721666 2650 
541 1 -0.00619367 0.000631843 -0.0127716 4.2e-05 -0.0143735 0.00954058 0.00936495 2650 
4126 1 -0.00443199 2.41029e-05 -0.0133157 0.000116 -0.0261531 0.0084042 0.00402279 2650 
2525 1 -0.004063 0.00148201 -0.013231 4.2e-05 0 -0.011753 0 2650 
2619 1 -0.005851 0.00229801 -0.012854 0.000116 0 -0.011753 0 2650 
2609 1 -0.00886 0.00302201 -0.013248 0.000116 0 -0.011753 0 2650 
3880 1 -0.010277 0.00321401 -0.012913 0.000423 0 -0.011753 0 2650 
3645 1 -0.00551966 0.0033491 -0.0126917 0.000423 -0.0357151 -0.0039173 0.0164321 2650 
3917 1 -0.003984 0.00378301 -0.012703 0.000116 0 -0.011753 0 2650 
2918 1 -0.00768414 0.00465209 -0.0132762 0.000116 -0.0132236 0.0205789 -0.0380223 2650 
1032 1 -0.00760669 0.00403106 -0.0130484 0.000423 -0.0173367 -0.00904293 -0.0556269 2650 
2912 1 -0.00576113 0.0046098 -0.0131308 0.000116 0.0344903 0.00459865 -0.0369002 2650 
3322 1 -0.00368176 0.00443345 -0.0131881 0.000423 0.0155165 0.0110838 0.0251988 2650 
2059 1 -0.003583 0.00399201 -0.012756 0.000116 0 -0.011753 0 2650 
450 1 -0.00653353 0.00496669 -0.0132937 0.000656 0.0112424 0.0469319 0.00733295 2650 
2596 1 -0.0089839 0.00554846 -0.0132465 0.000116 -0.0442582 -0.0431064 0.0384975 2650 
104 1 -0.00290382 0.00571208 -0.0133041 4.2e-05 -0.00674979 0.0150481 0.0116551 2650 
4078 1 -0.00889821 0.00635514 -0.0127222 0.000423 -0.0196946 -0.00953845 0.00130892 2650 
2913 1 -0.00736302 0.00692224 -0.0131005 0.000116 -0.028239 -0.0119827 -0.0130286 2650 
1427 1 -0.002948 0.00632301 -0.013376 4.2e-05 0 -0.011753 0 2650 
1584 1 -0.00138115 0.00710041 -0.0134149 0.000423 -0.00963006 0.0395817 0.04039 2650 
1237 1 -0.0101794 0.00764789 -0.0129631 0.000423 -0.00897314 0.0100083 -0.0434947 2650 
3259 1 -0.00864087 0.00764333 -0.013069 0.000116 -0.0089878 -0.00810535 0.00538998 2650 
1795 1 -0.00875315 0.00832062 -0.0129716 0.000423 0.00165908 -0.0118589 -0.000959055 2650 
1769 1 -0.00628737 0.00863385 -0.0133171 0.000656 -0.0139492 0.00030421 -0.000268195 2650 
1250 1 -0.0077698 0.00890591 -0.0129319 0.000423 -0.0109693 -0.0170514 -0.0143142 2650 
205 1 -0.000744 0.00903901 -0.01334 0.000116 0 -0.011753 0 2650 
2483 1 -0.00908796 0.00955747 -0.0131804 0.000116 0.00258646 -0.0218162 0.0129531 2650 
949 1 -0.00637963 0.0107852 -0.0127103 0.000116 -0.0176518 0.0277962 -0.00593252 2650 
1775 1 -0.00822752 0.011788 -0.0130413 0.000423 -7.29146e-05 -0.011186 -0.000346901 2650 
959 1 -0.00705288 0.0122767 -0.0128223 0.000116 -0.0723779 0.0623805 -0.0339909 2650 
3932 1 -0.00498466 0.0201493 -0.0130755 0.000116 0.03152 0.0411719 0.0597923 2650 
545 1 -0.002328 -0.00249299 -0.012432 4.2e-05 0 -0.011753 0 2650 
2172 1 -0.00869676 -0.00166282 -0.0122871 0.000116 0.0554355 0.00150652 -0.0523356 2650 
800 1 -0.0067908 -0.00178437 -0.0124859 0.000423 0.0734004 0.0256016 0.0971795 2650 
2468 1 -0.003167 -0.00211999 -0.012131 0.000423 0 -0.011753 0 2650 
1763 1 -0.001143 -0.00183199 -0.012442 0.000656 0 -0.011753 0 2650 
2645 1 -0.00578857 -0.00113869 -0.0119391 0.000656 -0.0337661 -0.0137944 0.0452096 2650 
3191 1 -0.00701536 -0.000312454 -0.0125314 0.000656 -0.0194676 0.00208869 -0.00166526 2650 
1422 1 -0.003881 1.40127e-05 -0.012349 4.2e-05 0 -0.011753 0 2650 
388 1 -0.00739089 0.00147476 -0.0121294 0.000116 0.0212466 0.0335067 0.0250458 2650 
3201 1 -0.00624019 0.0012281 -0.0124089 0.000423 -0.00608722 0.0216696 0.0089772 2650 
1799 1 -0.00323107 0.000822527 -0.0120571 0.000423 7.10678e-05 -0.0118308 4.63239e-05 2650 
3389 1 -0.010415 0.00228001 -0.012026 0.000116 0 -0.011753 0 2650 
3956 1 -0.00903495 0.00169352 -0.0123059 0.000656 -0.000640959 -0.0104529 -0.000368355 2650 
2285 1 -0.0117198 0.00387729 -0.0118522 0.000116 0.0175306 0.0103543 0.003719 2650 
411 1 -0.0104085 0.00458604 -0.0120898 0.000116 -0.00787832 -0.00657823 -8.20909e-05 2650 
3826 1 -0.009208 0.00417501 -0.012552 0.000116 0 -0.011753 0 2650 
708 1 -0.00276956 0.00454454 -0.0122135 0.000423 -0.00318183 -0.00599768 -0.010405 2650 
3380 1 -0.00222336 0.00449256 -0.0124417 0.000116 -0.00133046 -0.0120531 0.0302183 2650 
2194 1 -0.0023183 0.00464863 -0.0124861 4.2e-05 0.00491046 0.00111596 0.00228026 2650 
2957 1 -0.00178947 0.00421852 -0.0122595 4.2e-05 0.0205169 0.0248349 -0.000218849 2650 
3316 1 -0.008979 0.00492801 -0.012376 0.000423 0 -0.011753 0 2650 
1261 1 -0.00744812 0.00495699 -0.0124268 0.000423 -0.000148786 -0.00207045 -0.0014312 2650 
3362 1 -0.00266535 0.00511582 -0.0122757 0.000116 0.000350619 -0.00253681 -0.00404217 2650 
2219 1 -0.00356378 0.00604429 -0.0125223 0.000423 0.0573797 0.046564 0.0166916 2650 
3446 1 -0.002592 0.00593501 -0.012627 0.000423 0 -0.011753 0 2650 
3030 1 -0.001189 0.00643801 -0.012596 0.000116 0 -0.011753 0 2650 
445 1 -0.00959295 0.00731334 -0.0120819 0.000656 -0.00558309 0.00348593 -0.0224949 2650 
4318 1 -0.00859192 0.00769515 -0.0123337 0.000423 -0.00589465 -0.00768269 0.00318441 2650 
1519 1 -0.00263863 0.00780867 -0.0126315 0.000116 -0.0494896 0.0341374 0.0501115 2650 
2344 1 -0.00100753 0.00758129 -0.011918 0.000423 0.00597873 -0.023338 -0.0226217 2650 
3847 1 -0.00965486 0.00858285 -0.0124181 0.000656 0.00191913 0.0130802 -0.00623859 2650 
3173 1 -0.004958 0.00856701 -0.012321 4.2e-05 0 -0.011753 0 2650 
1495 1 -0.004483 0.00790601 -0.012591 0.000116 0 -0.011753 0 2650 
3684 1 -0.00432702 0.00816907 -0.0124193 0.000116 0.00413104 -0.0230128 -0.00941473 2650 
4002 1 -0.000443 0.00859901 -0.01223 0.000116 0 -0.011753 0 2650 
4179 1 -0.00711435 0.00896576 -0.0121312 0.000423 -0.00767678 -0.0221048 -0.00852388 2650 
2630 1 -0.001036 0.00877501 -0.012074 4.2e-05 0 -0.011753 0 2650 
289 1 -0.00130539 0.00975945 -0.0123326 0.000116 -0.0188061 -0.000940224 -0.0594549 2650 
1423 1 -0.00145 0.010255 -0.012526 4.2e-05 0 -0.011753 0 2650 
3106 1 -0.00721512 0.0117873 -0.0122276 0.000423 -0.042507 0.0242048 -0.0146805 2650 
1802 1 -0.00415036 0.0124595 -0.0120267 0.000423 0.00500259 -0.000364755 -0.0111755 2650 
2205 1 -0.00510858 0.0132764 -0.0120317 0.000656 -0.00206311 0.000112593 -0.00429342 2650 
1143 1 -0.000845135 0.0144241 -0.0125 0.000423 0.0070315 0.0110531 -0.00616027 2650 
675 1 -0.00512542 0.0211691 -0.0123244 0.000423 -0.0171714 0.0807922 0.0289201 2650 
2599 1 -0.0679256 -0.0364055 -0.0114517 0.000116 -0.269595 -0.811214 1.5991 2650 
822 1 -0.0676032 -0.0297042 -0.0115219 0.000423 -0.43489 0.00928181 2.55165 2650 
518 1 -0.0679721 -0.00965256 -0.0111721 0.000116 -0.510266 -0.256877 3.10451 2650 
15 1 -0.00175319 -0.00343863 -0.011184 0.000423 -0.0175393 -0.115863 -0.481313 2650 
2413 1 -0.00886107 -0.00282448 -0.0113477 4.2e-05 -0.0826713 -0.0311639 0.0536157 2650 
3505 1 -0.006952 -0.00282399 -0.011235 4.2e-05 0 -0.011753 0 2650 
1022 1 -0.00217854 -0.00286339 -0.0116355 0.000423 -0.0837048 0.0786437 -0.171512 2650 
440 1 -0.00061 -0.00152199 -0.011485 4.2e-05 0 -0.011753 0 2650 
756 1 -0.0061165 -0.000385084 -0.0118408 0.000116 0.041834 0.0697036 0.0154272 2650 
2939 1 -0.0093669 7.75349e-05 -0.0113684 0.000116 -0.00341769 -0.0275913 0.0148239 2650 
3200 1 -0.00832556 0.000267409 -0.0113987 0.000423 -0.0275514 -0.0115593 0.0194145 2650 
1063 1 -0.009531 0.00220401 -0.011683 0.000116 0 -0.011753 0 2650 
3894 1 -0.005583 0.00164901 -0.011098 0.000116 0 -0.011753 0 2650 
3477 1 -0.00984801 0.00275325 -0.0114583 0.000116 0.0616358 -0.0139442 -0.0219299 2650 
1595 1 -0.00792168 0.00289801 -0.0113116 0.000423 -0.0081111 0.00198047 0.0261702 2650 
2062 1 -0.00620524 0.00290266 -0.0114298 0.000116 -0.0517879 -0.0811336 0.00337392 2650 
2279 1 -0.0120255 0.00380431 -0.0111057 0.000116 -0.0158908 0.0502304 0.00803902 2650 