ITEM: TIMESTEP
4923888
ITEM: NUMBER OF ATOMS
4360
ITEM: BOX BOUNDS ff ff ff
-0.15 0.15
-0.15 0.06
-0.15 0.15
ITEM: ATOMS id type x y z radius vx vy vz density 
2855 1 -0.0034983 -0.0492101 -0.0688692 4.2e-05 -0.411558 0.3466 0.0209056 2650 
1499 1 -0.00623404 -0.0617702 -0.0686009 0.000116 0.762079 0.0375724 -0.108513 2650 
1417 1 -0.00654178 -0.0519449 -0.0685728 0.000116 -2.19457 -0.160134 0.20936 2650 
868 1 -0.0106333 -0.0487915 -0.0680585 0.000116 -2.08025 -2.02903 0.325011 2650 
1591 1 -0.00652832 -0.0482093 -0.0682666 0.000423 -2.10195 0.00596345 0.201009 2650 
2465 1 -0.0019535 -0.0466902 -0.0685502 0.000423 -2.0657 0.120363 0.0588669 2650 
3724 1 -0.0222155 -0.0591731 -0.0652816 4.2e-05 11.2319 1.28991 -3.82226 2650 
169 1 -0.0233538 -0.0523599 -0.0648045 0.000116 0.958524 -0.923548 -0.345427 2650 
632 1 -0.0253112 -0.0509164 -0.0640653 0.000116 0.423205 0.776848 -0.167201 2650 
3708 1 -0.0284212 -0.0624621 -0.0627476 0.000116 0.258601 -1.31855 -0.117132 2650 
758 1 -0.0281991 -0.0579158 -0.0628478 0.000116 11.2494 0.304671 -5.04747 2650 
3425 1 -0.0394114 -0.0549657 -0.0561222 0.000423 -2.40385 -1.05953 1.68809 2650 
1996 1 -0.0408369 -0.0491745 -0.0550935 0.000423 -2.11165 0.156001 1.56522 2650 
4250 1 -0.0426927 -0.0460106 -0.053993 0.000116 -0.126952 3.62589 1.5734 2650 
4316 1 -0.0457755 -0.0573925 -0.0510642 0.000423 -1.98491 -0.530264 1.77934 2650 
1535 1 -0.0514319 -0.0472508 -0.0459344 4.2e-05 4.19785 0.547622 -4.70025 2650 
669 1 -0.0541573 -0.0500837 -0.0416917 0.000656 -1.84484 0.451733 2.39644 2650 
1781 1 -0.054889 -0.0485757 -0.0411114 0.000423 -1.18886 0.0403101 1.58728 2650 
1197 1 -0.0563388 -0.0492256 -0.0396353 0.000116 0.965052 -0.82121 -1.37175 2650 
734 1 -0.055568 -0.0625838 -0.0368188 0.000116 6.82344 0.0158138 -3.78531 2650 
1051 1 -0.0587637 -0.0576854 -0.0359423 0.000116 -0.891946 -0.450645 1.45829 2650 
1961 1 -0.060371 -0.0622966 -0.0331718 0.000116 0.891649 1.26325 -1.6227 2650 
2237 1 -0.0600784 -0.0518526 -0.0330687 0.000423 -1.2714 0.565474 2.30985 2650 
19 1 -0.0634521 -0.057744 -0.0260151 0.000423 -1.14117 -0.561894 2.78336 2650 
2790 1 -0.065435 -0.0452156 -0.0205236 0.000423 -0.725542 -0.364857 2.31323 2650 
418 1 -0.0658349 -0.0485128 -0.0202681 0.000116 -0.600168 -2.08665 1.94947 2650 
4150 1 -0.0672012 -0.0509246 -0.0151333 0.000116 0.429137 -0.935109 -1.90564 2650 
2201 1 -0.0675113 -0.0620542 -0.0106542 0.000656 -0.169401 0.0212368 1.02819 2650 
51 1 -0.0679189 -0.0623759 -0.00948996 0.000423 1.60773 0.00807725 -11.5064 2650 
2557 1 -0.0685214 -0.0468251 -0.00278656 0.000423 -0.0664775 0.0103976 1.63468 2650 
2833 1 -0.0685877 -0.0604408 -0.000655966 0.000116 -0.9333 0.422143 -6.90307 2650 
3331 1 -0.0685755 -0.0545914 -0.000595133 0.000423 -0.0248999 -0.112615 2.86915 2650 
4037 1 -0.0688783 -0.0513832 -0.000901739 0.000116 0.164992 0.121142 -12.6027 2650 
3692 1 -0.0688535 -0.0577121 0.00205405 0.000116 -0.0161464 0.261765 -0.541242 2650 
2083 1 -0.0687803 -0.0565615 0.00494716 4.2e-05 0.0488647 0.228994 0.679365 2650 
534 1 -0.0674136 -0.0558595 0.0141666 0.000116 1.26768 3.43673 3.11312 2650 
4288 1 -0.0645515 -0.062377 0.0231554 0.000423 -4.48688 1.52564e-05 -12.5081 2650 
1520 1 -0.0645755 -0.0512086 0.0239798 0.000116 -2.38525 0.0872195 -6.42327 2650 
1239 1 -0.0607675 -0.0538295 0.0317845 0.000423 0.696447 -0.19943 1.33151 2650 
343 1 -0.0600856 -0.0523107 0.0330557 0.000423 1.23721 0.0654052 2.24889 2650 
689 1 -0.0580519 -0.0593406 0.0365093 0.000423 1.39969 -0.294264 2.22559 2650 
3957 1 -0.0564248 -0.0573675 0.0385675 0.000656 1.09794 0.246031 1.6063 2650 
483 1 -0.0524824 -0.0453056 0.0441423 0.000423 1.06164 0.226313 1.26222 2650 
1463 1 -0.0479455 -0.0487934 0.0490324 0.000423 1.7409 -0.301074 1.70231 2650 
2803 1 -0.0448489 -0.0600387 0.0522838 0.000116 -1.36533 -0.0216399 -1.17117 2650 
3840 1 -0.0434741 -0.0569982 0.0527371 0.000656 1.9405 -0.316962 1.59966 2650 
3850 1 -0.0442042 -0.0546806 0.0524303 0.000423 0.925678 0.793547 0.780444 2650 
2274 1 -0.0392585 -0.0550766 0.056602 0.000116 -1.47461 -0.81385 -1.02277 2650 
2612 1 -0.0354259 -0.0540764 0.0590765 0.000116 -5.03803 0.328095 -3.02111 2650 
4019 1 -0.0364266 -0.0471527 0.0584647 0.000116 2.17656 0.108903 1.35611 2650 
3440 1 -0.0333964 -0.0462128 0.0598968 0.000423 1.5506 0.442688 0.864562 2650 
1132 1 -0.0327538 -0.0456962 0.0602506 0.000423 1.52892 0.567985 0.831162 2650 
893 1 -0.0304387 -0.049903 0.0614527 0.000423 1.36156 -0.211637 0.674408 2650 
747 1 -0.0265469 -0.062007 0.0629934 0.000116 -0.0783185 -0.450843 -1.81449 2650 
1270 1 -0.0279077 -0.0536658 0.0629776 0.000116 0.571437 -0.607009 0.253225 2650 
3357 1 -0.0261096 -0.0527393 0.0637441 0.000116 3.54844 0.474691 1.45344 2650 
1601 1 -0.0146234 -0.0505727 0.0673141 0.000116 -7.44672 -0.245945 -1.61773 2650 
4020 1 -0.00941195 -0.055007 0.0682381 0.000116 2.20037 0.258175 0.303493 2650 
4133 1 -0.0099245 -0.04852 0.0681654 0.000116 -0.0286368 0.148337 -0.00416936 2650 
3276 1 -0.00311771 -0.0538177 0.0688135 0.000116 -1.49655 0.514495 -0.0678036 2650 
3266 1 -0.00361231 -0.0233999 -0.0687894 0.000116 5.86798 2.33784 -0.308143 2650 
2605 1 -0.000471 -0.0150785 -0.0688825 0.000116 -3.70281 0.0185332 0.0253189 2650 
1537 1 -0.00520079 -0.00243676 -0.0687616 4.2e-05 -3.93895 0.0081413 0.297922 2650 
1202 1 -0.00695443 -0.0232852 -0.0686064 4.2e-05 -1.80087 0.12061 0.182549 2650 
1020 1 -0.0024937 -0.0210531 -0.0685327 0.000423 -1.5693 0.208367 0.0565543 2650 
1818 1 -0.00629276 -0.0187561 -0.0685961 0.000116 -3.18977 0.0800554 0.292618 2650 
1282 1 -0.0103486 -0.0120654 -0.0681023 0.000116 -3.16728 -0.225435 0.481291 2650 
1343 1 -0.000567854 -0.0108558 -0.0685757 0.000423 -3.19799 -0.233588 0.0264815 2650 
838 1 -0.00731552 -0.0069272 -0.0684946 0.000116 -3.19555 -0.165114 0.341298 2650 
3422 1 -0.0131593 -0.0229914 -0.0673037 0.000423 -2.01168 -0.197424 0.393326 2650 
1363 1 -0.0114569 -0.0122563 -0.0676143 0.000423 -3.16966 -0.387513 0.537086 2650 
1598 1 -0.0122598 -0.00234746 -0.0677844 0.000116 -1.18572 -0.172541 0.214455 2650 
844 1 -0.0171223 -0.0345874 -0.0667222 0.000116 -2.11643 -0.37632 0.543122 2650 
4320 1 -0.0157468 -0.0334417 -0.0667457 0.000423 -2.2964 -0.0551103 0.541771 2650 
3964 1 -0.0171221 -0.0283042 -0.0664062 0.000423 -2.42367 -0.0524609 0.624916 2650 
1647 1 -0.016208 -0.0144429 -0.0670262 4.2e-05 -2.66065 -0.195786 0.643387 2650 
2738 1 -0.0172595 -0.0100905 -0.0667632 4.2e-05 -3.12593 -0.23109 0.808109 2650 
3040 1 -0.0157426 -0.00959402 -0.0670611 0.000116 -1.5684 1.84842 0.368182 2650 
2000 1 -0.0189709 -0.0203895 -0.0658438 0.000423 -0.138153 -0.00192632 0.437375 2650 
2087 1 -0.020453 -0.017412 -0.065855 4.2e-05 -0.389691 -0.467849 0.121029 2650 
146 1 -0.018036 -0.0165451 -0.0661639 0.000423 -3.04199 -0.211321 0.829233 2650 
3734 1 -0.0169833 -0.0162234 -0.0662026 0.000656 -3.04203 -0.199963 0.780389 2650 
378 1 -0.0177602 -0.00961302 -0.0662384 0.000423 -2.70509 0.0665252 0.725302 2650 
3516 1 -0.0190601 -0.00848347 -0.0656348 0.000656 -2.7288 0.311897 0.792434 2650 
2578 1 -0.0223338 -0.0293738 -0.0648395 0.000423 -2.66571 0.261882 0.918196 2650 
2247 1 -0.0210456 -0.0290701 -0.0652689 0.000423 -2.29054 0.0664492 0.738572 2650 
3522 1 -0.0220644 -0.0235945 -0.0649316 0.000423 -1.50364 -0.277801 0.510952 2650 
3330 1 -0.0215047 -0.0185027 -0.0651191 0.000423 -2.51363 0.47766 0.830091 2650 
312 1 -0.0222803 -0.00106394 -0.0651814 0.000116 -2.72543 -0.0636936 0.931607 2650 
2965 1 -0.020677 -0.0242795 -0.0637211 4.2e-05 7.42207 -3.15765 -2.72705 2650 
2672 1 -0.0259897 -0.0101603 -0.0634625 0.000423 -2.95775 -0.221204 1.21128 2650 
1813 1 -0.0270651 -0.0334646 -0.0630114 0.000423 -2.57091 -0.395939 1.10427 2650 
2920 1 -0.0286507 -0.0274258 -0.0626431 0.000116 -2.83528 -0.184585 1.29675 2650 
1955 1 -0.00580715 -0.0216463 -0.0632653 0.000116 12.9176 -0.211971 -5.89334 2650 
4177 1 -0.0294812 -0.03295 -0.0619178 0.000423 -2.45474 -0.376195 1.16879 2650 
4360 1 -0.0295371 -0.0320738 -0.0622301 0.000116 -3.39769 -0.382239 1.61269 2650 
3974 1 -0.0297658 -0.0277086 -0.0617815 0.000423 -1.92554 -0.647073 0.927707 2650 
55 1 -0.0286259 -0.0258932 -0.0623178 0.000423 -1.81189 -0.112465 0.832296 2650 
1922 1 -0.0302019 -0.0136087 -0.0615695 0.000423 -2.87776 -0.201269 1.41164 2650 
2386 1 -0.0313154 -0.0160252 -0.0613544 0.000116 -2.85417 -0.179204 1.45678 2650 
3426 1 -0.0319736 -0.026623 -0.0606683 0.000423 -2.72225 -0.604739 1.43469 2650 
3047 1 -0.0317684 -0.0205905 -0.0596132 0.000116 1.23774 -0.137103 -1.5294 2650 
3337 1 -0.0354862 -0.0063528 -0.0575575 0.000423 -1.02992 -0.144336 4.01005 2650 
482 1 -0.0382189 -0.0288155 -0.0569409 0.000423 -1.56844 0.465529 1.05275 2650 
3024 1 -0.0383528 -0.0191806 -0.0572196 0.000116 -2.66577 -0.155441 1.7868 2650 
786 1 -0.0372773 -0.0083964 -0.0575618 0.000423 -2.6732 -0.189003 1.73118 2650 
3482 1 -0.0398867 -0.0048705 -0.0561612 0.000116 -3.41141 -0.200167 2.42284 2650 
1619 1 -0.0407644 -0.00517374 -0.0555273 0.000116 -1.83311 -1.19371 1.34575 2650 
4373 1 -0.0358819 -0.00455606 -0.055642 4.2e-05 -1.86901 -0.0854635 2.66915 2650 
4017 1 -0.042133 -0.0026384 -0.0544962 0.000116 0.117945 -0.175001 -0.0911872 2650 
1760 1 -0.0417881 -0.00216625 -0.0548541 4.2e-05 -3.77633 0.00548217 2.87682 2650 
1380 1 -0.042844 -0.0445089 -0.0539391 0.000116 8.34033 1.28349 -6.62475 2650 
2421 1 -0.0415058 -0.0330734 -0.0542999 0.000656 -2.3213 -0.0168901 1.77436 2650 
2060 1 -0.0426608 -0.0206927 -0.0539904 0.000116 -0.325662 -0.225906 0.70448 2650 
1945 1 -0.0428522 -0.00758404 -0.0539325 0.000116 -2.37384 -0.0872974 1.88614 2650 
2112 1 -0.0436406 -0.0201369 -0.0528716 0.000423 -2.54975 -0.406425 1.72444 2650 
3089 1 -0.043622 -0.0106228 -0.0529159 0.000423 -3.68426 -0.333093 3.03717 2650 
4303 1 -0.0460125 -0.0258552 -0.0508507 0.000423 -1.45248 -0.104214 1.31428 2650 
4021 1 -0.0463801 -0.00896491 -0.0509304 0.000116 -0.212097 0.970901 0.193147 2650 
3831 1 -0.048078 -0.0346552 -0.049434 4.2e-05 7.93527 1.15306 -7.71761 2650 
822 1 -0.0476536 -0.0290201 -0.0493161 0.000423 -1.86142 -0.0899937 1.79866 2650 
3862 1 -0.0506126 -0.0354171 -0.0462744 0.000423 -1.99203 -0.288555 2.17879 2650 
2873 1 -0.0512868 -0.0330941 -0.045526 0.000423 -1.82444 -0.152607 2.05531 2650 
3580 1 -0.051855 -0.0218928 -0.045344 0.000116 -1.20692 0.826844 1.38022 2650 
4116 1 -0.0520279 -0.00599779 -0.0451456 0.000116 -2.10482 -0.149032 2.42569 2650 
2634 1 -0.053337 -0.00936192 -0.0437079 4.2e-05 -2.01821 -0.193966 2.46283 2650 
3904 1 -0.0532684 -0.00598129 -0.043675 0.000116 -2.03517 -0.146655 2.4822 2650 
2700 1 -0.0539015 -0.016385 -0.0428912 0.000116 -1.99601 -0.238357 2.50839 2650 
1712 1 -0.0543463 -0.01953 -0.0423262 0.000116 -1.96974 -0.0968202 2.52911 2650 
843 1 -0.05495 -0.0436069 -0.0415394 0.000116 -0.525484 -0.0145585 0.695335 2650 
2256 1 -0.0549674 -0.0438371 -0.0415164 0.000116 -0.416896 -0.0376058 0.551875 2650 
3443 1 -0.0550168 -0.0246868 -0.0409403 0.000423 -1.51408 -0.203504 2.03466 2650 
2051 1 -0.0550603 -0.0215067 -0.0407426 0.000116 -0.635258 -0.554386 -2.34979 2650 
1630 1 -0.0559018 -0.012766 -0.0402494 0.000116 -1.87494 -0.322159 2.60408 2650 
427 1 -0.0574171 -0.0152968 -0.0380565 0.000116 -0.4018 0.313339 0.606208 2650 
518 1 -0.0336761 -0.005844 -0.0386398 0.000116 -5.20406 -0.250537 -5.94104 2650 
107 1 -0.0383851 -0.0201355 -0.0374922 4.2e-05 5.35957 -0.0982247 -3.7927 2650 
4319 1 -0.0579253 -0.0405407 -0.0367098 0.000423 -1.50275 -0.0048723 2.37123 2650 
2599 1 -0.0582395 -0.0226874 -0.0367097 0.000116 -0.499431 -0.816275 1.61522 2650 
1856 1 -0.0576871 -0.000324958 -0.0368401 0.000116 2.94419 -0.466208 -4.29191 2650 
3549 1 -0.0586726 -0.0179978 -0.0355033 0.000423 -1.64022 -0.167694 2.71062 2650 
2327 1 -0.0588795 -0.0401094 -0.0351591 0.000423 -1.61378 -0.216437 2.70252 2650 
991 1 -0.0585131 -0.0276331 -0.0353189 0.000656 -1.48446 -0.249041 2.45931 2650 
955 1 -0.0593521 -0.0062213 -0.0349622 0.000116 -1.63403 -0.161186 2.77394 2650 
3431 1 -0.059952 -0.0292453 -0.0332973 0.000423 -1.34413 0.0984253 2.42012 2650 
2959 1 -0.0603771 -0.00975111 -0.0333139 4.2e-05 -1.55356 -0.195706 2.81561 2650 
8 1 -0.059881 -0.0338352 -0.0329465 0.000656 -1.36556 0.169367 2.48194 2650 
2690 1 -0.0604447 -0.0150407 -0.0323943 0.000423 -1.51263 -0.356316 2.82243 2650 
3656 1 -0.0606286 -0.0228729 -0.0320487 0.000423 -1.16055 -0.300667 2.19548 2650 
1410 1 -0.0619417 -0.0187478 -0.0301371 0.000116 -1.23164 0.060978 2.53142 2650 
710 1 -0.0617572 -0.0086959 -0.0298161 0.000423 -1.39008 -0.200039 2.87924 2650 
3743 1 -0.0624299 -0.022636 -0.0283806 0.000423 -1.05753 -0.326575 2.3263 2650 
2970 1 -0.061898 -0.0188994 -0.02898 0.000656 -0.93159 -0.292346 1.98977 2650 
295 1 -0.0625714 -0.0140045 -0.0288071 0.000116 -1.33536 -0.23802 2.90051 2650 
3464 1 -0.0631092 -0.0111337 -0.027609 0.000116 -1.28615 -0.224571 2.9399 2650 
992 1 -0.0634076 -0.0353595 -0.0255083 0.000656 -0.847346 -0.309391 2.1063 2650 
2091 1 -0.0634729 -0.0339263 -0.0253457 0.000656 -1.00144 -0.173208 2.50789 2650 
1060 1 -0.0642741 -0.0363568 -0.0247764 0.000116 -0.910419 -0.594903 2.36178 2650 
3679 1 -0.0649989 -0.00710123 -0.0228073 0.000116 -1.0611 -0.202049 3.02405 2650 
2532 1 -0.064924 -0.0281937 -0.021356 0.000656 -0.894994 -0.150225 2.72085 2650 
4212 1 -0.0653092 -0.0162154 -0.0209203 0.000423 -0.991771 -0.196738 3.09612 2650 
2259 1 -0.0657444 -0.0071691 -0.0205595 0.000116 -0.880826 -0.191641 2.81667 2650 
3960 1 -0.0136218 -0.00635121 -0.0206535 0.000423 -1.60954 -0.434085 -2.43443 2650 
3502 1 -0.00177666 -0.00346886 -0.0212969 4.2e-05 -0.200474 -0.0469139 -2.40309 2650 
2248 1 -0.0654696 -0.0234001 -0.0204127 0.000423 -0.746938 -0.209782 2.39565 2650 
3933 1 -0.0661751 -0.00584811 -0.0191281 0.000116 -0.889242 -0.134677 3.0764 2650 
574 1 -0.0662562 -0.0291903 -0.0176937 0.000423 -0.62576 0.0893583 2.34323 2650 
2072 1 -0.0668505 -0.0280837 -0.0166142 0.000116 -0.302586 -0.771676 1.21752 2650 
3135 1 -0.0668105 -0.0124497 -0.0167742 0.000116 -0.778762 -0.21645 3.10176 2650 
606 1 -0.000183 0.00350934 -0.016592 0.000116 0 -0.011753 0 2650 
188 1 -0.000399905 0.00721311 -0.0167917 0.000116 0.0165449 0.115943 -0.0162865 2650 
2713 1 -0.000763 0.0104803 -0.016767 0.000116 0 -0.011753 0 2650 
2875 1 -0.00439524 -0.00384609 -0.0164788 0.000423 -0.139606 -0.246076 -0.606125 2650 
736 1 -0.003429 0.00143434 -0.016474 0.000116 0 -0.011753 0 2650 
150 1 -0.00248256 0.000891944 -0.016254 0.000423 -0.00913371 0.00501626 0.00203877 2650 
676 1 -0.00218956 0.0019943 -0.0162784 0.000423 -0.0135783 -0.00452781 0.0177143 2650 
1679 1 -0.00363 0.00281835 -0.0158939 0.000423 -0.000267589 -0.00703629 -0.00433961 2650 
2013 1 -0.00280761 0.00303602 -0.0161679 0.000423 0.00298908 -0.00809762 0.00112683 2650 
2301 1 -0.004222 0.00528234 -0.016305 4.2e-05 0 -0.011753 0 2650 
3121 1 -0.004084 0.00502742 -0.0159105 0.000423 0.0295457 0.00139416 -0.0105356 2650 
302 1 -0.00082083 0.00588272 -0.0165732 0.000116 0.0171051 0.0203877 0.0103663 2650 
1698 1 -0.000216378 0.00556535 -0.0165019 0.000423 0.0411176 0.0348153 -1.85855e-05 2650 
3616 1 -6.33951e-05 0.00625384 -0.016138 4.2e-05 0.03094 0.00266257 -0.00226281 2650 
1219 1 -0.00105366 0.0063525 -0.0159971 0.000656 0.0133734 0.0239605 0.00857101 2650 
3546 1 -0.000263055 0.00721705 -0.0161622 0.000423 0.025704 0.0149609 0.00360255 2650 
3934 1 -0.001977 0.00827134 -0.016218 0.000116 0 -0.011753 0 2650 
192 1 -0.00017101 0.00802539 -0.0164674 0.000116 0.0003015 -0.0085404 -0.100133 2650 
913 1 -0.000623829 0.0216288 -0.016394 0.000423 -0.0131935 0.0940792 0.0439723 2650 
2340 1 -0.0668263 -0.0282588 -0.0154012 0.000423 -0.508009 -0.0425048 2.20426 2650 
615 1 -0.0648233 -0.021306 -0.0152387 0.000116 4.85472 -1.15271 -5.55645 2650 
1991 1 -0.00462456 0.000587671 -0.0154965 0.000656 -0.0197706 -0.00214867 0.00868857 2650 
3239 1 -0.00265636 0.00156391 -0.0155313 0.000116 -0.00859694 0.0134975 -0.018679 2650 
2922 1 -0.00591172 0.00192745 -0.0150414 0.000116 -0.0492521 -0.0166623 -0.0574868 2650 
3589 1 -0.00569074 0.00364593 -0.0157021 0.000116 0.155503 0.064687 -0.0402711 2650 
2399 1 -0.002418 0.00372334 -0.015541 0.000116 0 -0.011753 0 2650 
2313 1 -0.00508393 0.00479953 -0.0153311 0.000656 -0.00213445 0.0338551 -0.0263352 2650 
978 1 -0.005372 0.00696934 -0.015286 0.000116 0 -0.011753 0 2650 
1620 1 -0.00470952 0.00652201 -0.0155179 0.000116 0.0529387 0.0514306 -0.00503745 2650 
2969 1 -0.0012462 0.00729411 -0.0150976 0.000656 -0.00214235 0.0311769 0.000161156 2650 
1483 1 -3.16661e-05 0.00800001 -0.0151136 0.000423 -0.023592 0.00968138 -0.006304 2650 
3177 1 -0.001068 0.00932734 -0.015412 4.2e-05 0 -0.011753 0 2650 
3830 1 -0.006879 0.00982334 -0.015411 4.2e-05 0 -0.011753 0 2650 
86 1 -0.002064 0.00952734 -0.015055 0.000116 0 -0.011753 0 2650 
371 1 -0.000479988 0.0101641 -0.0150833 0.000423 0.000724313 -0.00601752 -0.0061741 2650 
938 1 -0.000869 0.0107333 -0.015416 0.000116 0 -0.011753 0 2650 
568 1 -0.00441719 0.0157537 -0.0154731 0.000423 0.0183062 0.0263973 -0.10881 2650 
3216 1 -0.004445 0.0228278 -0.0152681 0.000423 -0.00544148 0.107266 0.0543995 2650 
1357 1 -0.00476317 0.0420024 -0.0157499 0.000423 0.0681058 0.285169 -0.0155587 2650 
1053 1 -0.007469 -0.000118655 -0.014946 0.000116 0 -0.011753 0 2650 
2827 1 -0.00446831 -0.000500611 -0.0143058 0.000116 -0.0201753 -0.0226203 0.0017234 2650 
623 1 -0.0067915 0.000755861 -0.0144281 0.000116 -0.00477071 -0.00938024 -0.0420845 2650 
3733 1 -0.00578182 0.000629912 -0.0142685 0.000656 -0.024164 0.0138988 0.0212093 2650 
2332 1 -0.00395754 0.000379262 -0.0144944 0.000423 -0.0114447 -0.00779769 0.00753018 2650 
2817 1 -0.00211543 0.000373151 -0.0146089 0.000116 0.0100645 -0.056664 0.00630574 2650 
222 1 -0.00185686 0.00113818 -0.014877 0.000656 -0.00713779 -0.040298 -0.0148088 2650 
3637 1 -0.00350854 0.00180415 -0.0147851 0.000423 -0.00927015 0.0142513 -0.0137177 2650 
220 1 -0.003649 0.00278634 -0.014897 4.2e-05 0 -0.011753 0 2650 
234 1 -0.00211008 0.00429823 -0.0144093 0.000423 0.0351287 -0.0167305 0.0264562 2650 
2283 1 -0.00121083 0.00417867 -0.0148947 0.000116 -0.0318858 -0.01081 -0.0228231 2650 
4296 1 -0.00237364 0.00538308 -0.014716 0.000423 -0.0431702 0.0421068 0.0473826 2650 
1618 1 -0.00768769 0.00582169 -0.0149363 0.000116 -0.0316941 0.0615295 0.00665882 2650 
3365 1 -0.002315 0.00614934 -0.014552 0.000116 0 -0.011753 0 2650 
2438 1 -0.00576596 0.00676822 -0.0148882 0.000423 0.00224072 -0.00339368 -0.0261897 2650 
4227 1 -7.07524e-05 0.0074737 -0.0143651 0.000116 -0.00921828 -0.0161692 0.0154311 2650 
4190 1 -0.00804645 0.00856352 -0.0143898 0.000423 -0.009489 7.8582e-05 0.00632979 2650 
508 1 -0.00770419 0.0079095 -0.0149686 0.000116 -0.0609474 0.0130298 0.0475554 2650 
3515 1 -0.00689783 0.00810746 -0.0142838 0.000656 -0.00618896 -0.0090925 0.00826116 2650 
1617 1 -0.00444678 0.00946081 -0.0149626 0.000116 0.0304875 0.00968505 -0.0492471 2650 
1228 1 -0.00139716 0.00959557 -0.0149941 0.000423 -0.00123313 -0.0118667 -0.000623591 2650 
3669 1 -0.000326648 0.0108881 -0.0145383 0.000423 0.00220454 -0.00743356 -0.00383523 2650 
142 1 -0.00203263 0.0220122 -0.0149046 0.000423 -0.0926872 0.0526713 -0.0970482 2650 
2467 1 -0.00207852 0.0277035 -0.0147394 0.000423 0.0301791 0.103437 0.0421276 2650 
1249 1 -0.0671729 -0.0325099 -0.0138114 0.000423 -0.624639 -0.232316 3.03798 2650 
3196 1 -0.00670853 -0.00320331 -0.0140774 0.000423 -0.0151487 -0.0348726 0.0137497 2650 
800 1 -0.0079952 -0.00221048 -0.0141533 0.000423 0.0375092 0.0208022 0.142985 2650 
3153 1 -0.000177586 -0.00166679 -0.0138151 0.000116 -0.0842498 -0.0374178 0.0430189 2650 
3587 1 -0.00583239 0.00417174 -0.0139636 0.000116 0.00461134 0.0023037 -0.00278329 2650 
3322 1 -0.00394228 0.00424735 -0.0136112 0.000423 0.0155165 0.0110838 0.0251988 2650 
4165 1 -0.00516524 0.00505847 -0.0139969 0.000656 -0.00035358 -0.0321692 0.0084674 2650 
104 1 -0.0027905 0.00545942 -0.0134998 4.2e-05 -0.00674979 0.0150481 0.0116551 2650 
2596 1 -0.00824081 0.00627222 -0.0138929 0.000116 -0.0442582 -0.0431064 0.0384975 2650 
3950 1 -0.00615984 0.006843 -0.0138725 0.000656 -0.0401516 -0.0144037 -0.0334096 2650 
1584 1 -0.00121946 0.00643584 -0.014093 0.000423 -0.00963006 0.0395817 0.04039 2650 
2322 1 -0.00797789 0.007543 -0.0137028 0.000656 -0.0108707 -0.010103 0.00337555 2650 
1288 1 -0.002467 0.00745234 -0.014044 0.000116 0 -0.011753 0 2650 
1519 1 -0.0018077 0.00723551 -0.0134729 0.000116 -0.0494896 0.0341374 0.0501115 2650 
2222 1 -0.000271592 0.00819478 -0.014133 0.000423 -0.00549102 -0.00568171 -0.00117535 2650 
581 1 -0.00558741 0.00898503 -0.0142103 0.000423 -0.000469419 -0.0102297 -0.00424824 2650 
963 1 -0.00474549 0.00929702 -0.0138976 0.000116 -0.0353923 -0.062899 -0.0407773 2650 
1986 1 -0.00315903 0.0093546 -0.0141549 0.000656 0.00762539 0.0149956 0.0116892 2650 
1476 1 -0.006941 0.0102523 -0.013435 0.000423 0 -0.011753 0 2650 
233 1 -0.0047892 0.0101 -0.0135812 0.000423 0.000342891 -0.00976437 -0.0328705 2650 
4257 1 -0.00854297 0.0112714 -0.014184 0.000116 0.0101268 -0.0416798 0.0036163 2650 
1409 1 -0.00044 0.0112323 -0.013868 0.000116 0 -0.011753 0 2650 
3644 1 -0.000795588 0.0121803 -0.0138634 0.000423 -0.00432743 0.00711996 -0.0325914 2650 
3632 1 -0.00903384 0.012782 -0.0138098 0.000423 -0.0221559 0.000444483 0.0133776 2650 
3932 1 -0.00551388 0.019458 -0.0140794 0.000116 0.03152 0.0411719 0.0597923 2650 
3352 1 -0.009535 0.05373 -0.0136756 0.000116 -0.873308 0.00025933 0.643558 2650 
555 1 -0.0671515 -0.0251079 -0.0127234 0.000656 -0.520115 0.145401 2.74507 2650 
330 1 -0.00604741 -0.00267462 -0.0133782 4.2e-05 -0.0696064 -0.0147686 0.0345761 2650 
4097 1 -0.00854715 -0.00229693 -0.0134112 0.000423 0.0242376 0.00709813 -0.00869569 2650 
2645 1 -0.00521869 -0.000910006 -0.0126991 0.000656 -0.0339684 -0.013594 0.0452752 2650 
1468 1 -0.00393008 -0.000960418 -0.0127127 0.000423 -0.0197001 -0.0470204 -0.0326717 2650 
509 1 -0.00720241 -0.000658849 -0.0131871 0.000116 -0.00521486 0.00944493 -0.0325939 2650 
4126 1 -0.00399288 -0.000117003 -0.0133832 0.000116 -0.0261531 0.0084042 0.00402279 2650 
3551 1 -0.00592767 4.45869e-05 -0.013133 0.000423 -0.0216652 0.0127841 -0.0071385 2650 
541 1 -0.00595234 0.000471657 -0.0129289 4.2e-05 -0.0143735 0.00954058 0.00936495 2650 
2525 1 -0.004063 0.00167934 -0.013231 4.2e-05 0 -0.011753 0 2650 
2619 1 -0.005851 0.00249534 -0.012854 0.000116 0 -0.011753 0 2650 
3880 1 -0.010277 0.00341134 -0.012913 0.000423 0 -0.011753 0 2650 
2609 1 -0.00886 0.00321934 -0.013248 0.000116 0 -0.011753 0 2650 
3645 1 -0.00492001 0.00341487 -0.0129676 0.000423 -0.0357151 -0.0039173 0.0164321 2650 
1171 1 -0.0082456 0.00471456 -0.0130982 0.000116 -0.0146011 -0.0168948 -0.0399555 2650 
2918 1 -0.00757 0.00457034 -0.012948 0.000116 0 -0.011753 0 2650 
450 1 -0.00672349 0.00417887 -0.0134176 0.000656 0.0113486 0.0469175 0.00740751 2650 
3917 1 -0.003984 0.00398034 -0.012703 0.000116 0 -0.011753 0 2650 
2059 1 -0.003583 0.00418934 -0.012756 0.000116 0 -0.011753 0 2650 
3380 1 -0.00220102 0.00469493 -0.0129491 0.000116 -0.00133046 -0.0120531 0.0302183 2650 
2512 1 -0.00975649 0.00486542 -0.013031 0.000116 0.002514 -0.0160812 -0.0313025 2650 
2219 1 -0.00452718 0.00526248 -0.0128026 0.000423 0.0573797 0.046564 0.0166916 2650 
4310 1 -0.000471878 0.00539195 -0.0130819 0.000423 0.011252 0.0218425 0.101284 2650 
4078 1 -0.00856754 0.00651529 -0.0127442 0.000423 -0.0196946 -0.00953845 0.00130892 2650 
1427 1 -0.002948 0.00652034 -0.013376 4.2e-05 0 -0.011753 0 2650 
1237 1 -0.0103079 0.00767245 -0.0127152 0.000423 -0.0167369 -0.000264958 -0.0403827 2650 
3259 1 -0.00848997 0.00777941 -0.0131595 0.000116 -0.0089878 -0.00810535 0.00538998 2650 
2913 1 -0.00688889 0.00712343 -0.0128818 0.000116 -0.028239 -0.0119827 -0.0130286 2650 
1795 1 -0.008775 0.00851934 -0.012959 0.000423 0 -0.011753 0 2650 
1769 1 -0.00600404 0.00866337 -0.0132498 0.000656 -0.0180455 -0.00259761 -0.00548469 2650 
1250 1 -0.00758563 0.0091922 -0.0126915 0.000423 -0.0109693 -0.0170514 -0.0143142 2650 
205 1 -0.000744 0.00923634 -0.01334 0.000116 0 -0.011753 0 2650 
2483 1 -0.00913139 0.00992376 -0.0133978 0.000116 0.00258646 -0.0218162 0.0129531 2650 
1827 1 -0.00517344 0.00967378 -0.0129414 0.000116 -0.0556457 -0.0263815 -0.0392498 2650 
3007 1 -0.00089066 0.0115591 -0.01308 0.000423 -0.0135196 -0.00505473 -0.0280609 2650 
1775 1 -0.00822629 0.0119758 -0.0130354 0.000423 -7.29146e-05 -0.011186 -0.000346901 2650 
478 1 -0.00669138 0.0146 -0.0126867 0.000423 -0.0255767 0.012458 -0.051203 2650 
675 1 -0.00483711 0.0198126 -0.0128099 0.000423 -0.0171714 0.0807922 0.0289201 2650 
1979 1 -0.0066011 0.0215364 -0.0127737 4.2e-05 -0.060479 0.115177 0.0648972 2650 
3536 1 -0.0675555 -0.030786 -0.0117988 0.000423 -0.463372 -0.218673 2.65309 2650 
2413 1 -0.00747302 -0.00230124 -0.0122479 4.2e-05 -0.0826713 -0.0311639 0.0536157 2650 
2468 1 -0.003167 -0.00192266 -0.012131 0.000423 0 -0.011753 0 2650 
545 1 -0.002328 -0.00229566 -0.012432 4.2e-05 0 -0.011753 0 2650 
1763 1 -0.001143 -0.00163466 -0.012442 0.000656 0 -0.011753 0 2650 
2127 1 -0.0111315 -0.000311787 -0.0119131 0.000423 -0.129436 0.0152094 0.099489 2650 
3191 1 -0.00671926 -0.000358381 -0.0124857 0.000656 -0.0168446 0.00288294 -0.00297772 2650 
1422 1 -0.003881 0.000211345 -0.012349 4.2e-05 0 -0.011753 0 2650 
388 1 -0.00774762 0.000912186 -0.0125499 0.000116 0.0212466 0.0335067 0.0250458 2650 
3201 1 -0.00613799 0.000864268 -0.0125596 0.000423 -0.00608722 0.0216696 0.0089772 2650 
1799 1 -0.00323227 0.00102117 -0.0120579 0.000423 7.10678e-05 -0.0118308 4.63239e-05 2650 
3956 1 -0.00902419 0.00186902 -0.0122997 0.000656 -0.000640959 -0.0104529 -0.000368355 2650 
3389 1 -0.010415 0.00247734 -0.012026 0.000116 0 -0.011753 0 2650 
1125 1 -0.00502819 0.00303421 -0.012196 0.000423 -0.0456429 0.0111646 0.0284182 2650 
2957 1 -0.00213395 0.00380154 -0.0122558 4.2e-05 0.0205169 0.0248349 -0.000218849 2650 
411 1 -0.0102762 0.00469649 -0.0120884 0.000116 -0.00787832 -0.00657823 -8.20909e-05 2650 
3826 1 -0.009208 0.00437234 -0.012552 0.000116 0 -0.011753 0 2650 
1032 1 -0.00730991 0.0041344 -0.0121027 0.000423 -0.0183694 0.00104764 -0.0575954 2650 
2912 1 -0.00612305 0.00450326 -0.0123587 0.000116 0.0152844 0.00719243 -0.0503855 2650 
2194 1 -0.00240074 0.0046299 -0.0125244 4.2e-05 0.00491046 0.00111596 0.00228026 2650 
708 1 -0.00271614 0.00464524 -0.0120388 0.000423 -0.00318183 -0.00599768 -0.010405 2650 
3316 1 -0.008979 0.00512534 -0.012376 0.000423 0 -0.011753 0 2650 
1261 1 -0.00744909 0.00503481 -0.0124082 0.000423 0.000611181 -0.0114942 -0.000246774 2650 
3362 1 -0.00267124 0.00515841 -0.0122078 0.000116 0.000350619 -0.00253681 -0.00404217 2650 
3446 1 -0.002592 0.00613234 -0.012627 0.000423 0 -0.011753 0 2650 
3030 1 -0.001189 0.00663534 -0.012596 0.000116 0 -0.011753 0 2650 
4318 1 -0.00849294 0.00782414 -0.0123871 0.000423 -0.00589465 -0.00768269 0.00318441 2650 
3847 1 -0.00970563 0.00862966 -0.0124081 0.000656 0.003414 -0.00345937 -0.00056311 2650 
1495 1 -0.004483 0.00810334 -0.012591 0.000116 0 -0.011753 0 2650 
3684 1 -0.00439638 0.00855545 -0.0122612 0.000116 0.00413104 -0.0230128 -0.00941473 2650 
191 1 -0.0115303 0.00870791 -0.0119636 0.000116 -0.0068407 0.0371391 0.023513 2650 
4179 1 -0.00698545 0.0093369 -0.011988 0.000423 -0.00767678 -0.0221048 -0.00852388 2650 
3173 1 -0.004958 0.00876434 -0.012321 4.2e-05 0 -0.011753 0 2650 
2630 1 -0.001036 0.00897234 -0.012074 4.2e-05 0 -0.011753 0 2650 
4002 1 -0.000443 0.00879634 -0.01223 0.000116 0 -0.011753 0 2650 
949 1 -0.00608326 0.0103185 -0.0126106 0.000116 -0.0176518 0.0277962 -0.00593252 2650 
1423 1 -0.00145 0.0104523 -0.012526 4.2e-05 0 -0.011753 0 2650 
3106 1 -0.00650143 0.0113809 -0.0119811 0.000423 -0.042507 0.0242048 -0.0146805 2650 
959 1 -0.00583766 0.0112294 -0.0122516 0.000116 -0.0723779 0.0623805 -0.0339909 2650 
2205 1 -0.00507394 0.0132745 -0.0119596 0.000656 -0.00206311 0.000112593 -0.00429342 2650 
3798 1 -0.00280682 0.0127059 -0.0120757 0.000116 -0.0483102 0.213285 0.0286816 2650 
1143 1 -0.000963194 0.0142385 -0.0123966 0.000423 0.0070315 0.0110531 -0.00616027 2650 
2109 1 -0.00541791 0.0217351 -0.0121665 0.000423 -0.0277695 0.107912 0.0279852 2650 
819 1 -0.00312764 0.0373746 -0.0119403 0.000423 0.076373 0.150736 0.0329282 2650 
1462 1 -0.0675887 -0.04101 -0.0114499 0.000423 -0.603752 0.309882 1.11944 2650 
2620 1 -0.0679538 -0.0175241 -0.0112826 0.000116 -0.524476 -0.117084 3.15885 2650 
3505 1 -0.006952 -0.00262666 -0.011235 4.2e-05 0 -0.011753 0 2650 
1022 1 -0.002093 -0.00275666 -0.011454 0.000423 0 -0.011753 0 2650 
2172 1 -0.00962752 -0.00168811 -0.0114084 0.000116 0.0554355 0.00150652 -0.0523356 2650 
440 1 -0.00061 -0.00132466 -0.011485 4.2e-05 0 -0.011753 0 2650 
2939 1 -0.00930951 0.000540791 -0.0116173 0.000116 -0.00341769 -0.0275913 0.0148239 2650 
3200 1 -0.00785944 0.000457404 -0.0117318 0.000423 -0.0293082 -0.00953204 0.0229812 2650 
248 1 -0.00701793 0.00130925 -0.0112584 0.000423 -0.0134856 -0.00351132 0.050645 2650 
3778 1 -0.00570863 0.00103677 -0.0117412 0.000423 -0.0441284 0.0265152 0.0540744 2650 
3894 1 -0.005583 0.00184634 -0.011098 0.000116 0 -0.011753 0 2650 
93 1 -0.0117913 0.00269624 -0.011794 0.000116 -0.294036 0.794232 0.336766 2650 
2279 1 -0.0117587 0.00296095 -0.0112407 0.000116 -0.0158908 0.0502304 0.00803902 2650 
3477 1 -0.0108829 0.00298737 -0.0110901 0.000116 0.0616358 -0.0139442 -0.0219299 2650 
1063 1 -0.009531 0.00240134 -0.011683 0.000116 0 -0.011753 0 2650 
1595 1 -0.0077855 0.00286475 -0.011751 0.000423 -0.0081111 0.00198047 0.0261702 2650 
3383 1 -0.011957 0.00330928 -0.0114091 0.000116 -0.0218075 -0.0186321 -0.0142315 2650 
2285 1 -0.0116608 0.0037238 -0.0115159 0.000116 -0.013552 0.00856226 -0.0313614 2650 
1192 1 -0.00471016 0.00318299 -0.0113725 0.000116 -0.0160738 0.0171838 -0.0228619 2650 
2294 1 -0.004894 0.00408234 -0.011565 0.000116 0 -0.011753 0 2650 
1569 1 -0.00394459 0.00413894 -0.0110925 0.000423 -0.0101165 -0.00132906 0.0156053 2650 
878 1 -0.00390895 0.00459777 -0.0112037 4.2e-05 -0.000281569 -0.00211859 -0.00050102 2650 