ITEM: TIMESTEP
11273112
ITEM: NUMBER OF ATOMS
4280
ITEM: BOX BOUNDS ff ff ff
-0.15 0.15
-0.15 0.06
-0.15 0.15
ITEM: ATOMS id type x y z radius vx vy vz density 
3096 1 -0.00546975 -0.0621188 -0.0683103 0.000423 0.655924 0.277231 0.476766 2650 
1616 1 -0.0115415 -0.0453284 -0.0679104 0.000116 2.76942 -0.689948 -0.470668 2650 
3887 1 -0.0113638 -0.050153 -0.06763 0.000423 1.02071 -0.550053 -0.17151 2650 
4036 1 -0.0180146 -0.0593306 -0.0664868 0.000116 -1.09048 -0.489793 0.295466 2650 
2165 1 -0.0190895 -0.061017 -0.0658018 0.000116 13.5841 0.0449685 -2.9436 2650 
319 1 -0.0203517 -0.0498502 -0.0658091 0.000116 6.72732 0.120007 -2.08045 2650 
400 1 -0.0219729 -0.0616751 -0.0652568 0.000116 11.2804 0.892508 -3.30541 2650 
1082 1 -0.022662 -0.0490471 -0.0650496 0.000116 2.54177 -0.997706 -0.885504 2650 
3143 1 -0.0101974 -0.0618968 -0.0642394 0.000116 7.59043 0.387952 -4.01906 2650 
286 1 -0.0242626 -0.0585253 -0.0644697 0.000116 1.66488 -0.87804 -0.626563 2650 
2198 1 -0.0351863 -0.0561082 -0.0593054 4.2e-05 1.00145 1.93979 -0.594163 2650 
3943 1 -0.0349017 -0.0526804 -0.0594733 4.2e-05 2.69162 -1.87884 -1.57957 2650 
1833 1 -0.0362723 -0.0508826 -0.0585606 0.000116 5.35825 1.00091 -3.31889 2650 
4305 1 -0.0361634 -0.0475973 -0.058268 0.000423 -0.122174 0.0106329 0.0758258 2650 
1231 1 -0.0392741 -0.054567 -0.0562184 0.000423 4.29098 0.510523 -2.99767 2650 
3966 1 -0.0403022 -0.0582826 -0.0554858 0.000423 -0.54685 0.197788 0.397205 2650 
3577 1 -0.0426661 -0.0569775 -0.0540799 0.000116 5.82482 -1.00519 -4.59547 2650 
2837 1 -0.0446453 -0.0501532 -0.0524578 0.000116 1.07056 -1.44399 -0.911125 2650 
2310 1 -0.0461681 -0.052271 -0.0512222 4.2e-05 -1.49374 -1.62298 1.34635 2650 
1419 1 -0.042095 -0.0625636 -0.049943 0.000116 6.05541 0.0340037 -10.4357 2650 
2123 1 -0.0508156 -0.0502553 -0.0460514 0.000423 2.54977 0.811168 -2.81356 2650 
1012 1 -0.0507927 -0.0492632 -0.0460765 0.000423 -0.19961 -0.340535 0.220042 2650 
786 1 -0.0526139 -0.0618475 -0.0439977 0.000423 5.05026 0.0705141 -5.97198 2650 
1768 1 -0.0524454 -0.0583394 -0.0438255 0.000656 0.152674 0.459923 -0.182703 2650 
3673 1 -0.0541375 -0.0464951 -0.0420962 0.000423 -1.16025 -1.40202 1.49213 2650 
3139 1 -0.0554361 -0.0605401 -0.0408884 0.000116 4.21737 -0.213575 -5.71787 2650 
2186 1 -0.055746 -0.0599009 -0.0404649 0.000116 3.24375 -0.0756731 -4.46872 2650 
2042 1 -0.0556621 -0.0495937 -0.0405802 0.000116 1.01281 0.353808 -1.38923 2650 
3547 1 -0.0573718 -0.0623691 -0.0375298 0.000423 3.07985 -0.635865 -4.85533 2650 
2314 1 -0.0577825 -0.0620817 -0.0365071 0.000656 2.92581 0.11154 -4.74037 2650 
4229 1 -0.0609246 -0.0618242 -0.0321438 0.000116 5.01568 0.343356 -9.50662 2650 
3260 1 -0.0612172 -0.0612623 -0.0315829 0.000116 -0.306247 -0.17345 0.593598 2650 
2476 1 -0.0609788 -0.0459601 -0.0320407 0.000116 0.117451 -0.820513 -0.223528 2650 
3013 1 -0.0610909 -0.0551274 -0.0311585 0.000423 -0.225109 -0.00589528 0.441358 2650 
1407 1 -0.0615448 -0.0487124 -0.0309397 0.000116 1.376 1.0576 -2.73711 2650 
2100 1 -0.0628433 -0.0478026 -0.0268686 0.000656 -0.529681 -0.315871 1.23888 2650 
908 1 -0.0635285 -0.0479702 -0.0258277 0.000423 -0.515623 -0.310067 1.26828 2650 
3812 1 -0.0653085 -0.0479739 -0.0219047 0.000116 -0.390236 -0.268457 1.16348 2650 
3549 1 -0.065388 -0.0505531 -0.0206728 0.000423 0.211333 0.107733 -0.668448 2650 
1107 1 -0.0652944 -0.0602546 -0.020195 0.000656 -0.0667946 0.0987261 0.21596 2650 
3613 1 -0.0673862 -0.0509397 -0.0146392 4.2e-05 0.131934 -0.952416 -0.60731 2650 
4307 1 -0.0671649 -0.0609517 -0.013852 0.000423 1.60835 0.203393 -7.79849 2650 
1377 1 -0.0680551 -0.050845 -0.0106547 0.000116 0.267274 -0.328185 -1.70717 2650 
420 1 -0.0678262 -0.0616726 -0.00885226 0.000116 -2.95128 0.365377 -4.86118 2650 
2051 1 -0.0671305 -0.0621999 -0.0062414 0.000116 4.76607 0.447675 -6.64025 2650 
947 1 -0.068648 -0.054367 -0.00569813 0.000116 0.144253 0.346247 -1.73789 2650 
2829 1 -0.0683021 -0.0486711 0.00893547 0.000116 -0.0836105 -0.759063 -0.639115 2650 
2052 1 -0.0683177 -0.0476867 0.00881517 0.000116 -0.170425 0.67366 -1.3208 2650 
19 1 -0.066483 -0.0531888 0.0168214 0.000423 0.332176 -1.02217 1.31285 2650 
3930 1 -0.0666027 -0.0479991 0.0175814 0.000116 -1.12664 1.65798 -4.26802 2650 
2177 1 -0.066122 -0.0580392 0.0193111 0.000116 -2.92993 0.256544 -10.0322 2650 
3058 1 -0.0657151 -0.0516521 0.0206531 0.000116 -0.545896 -0.698303 -1.73696 2650 
917 1 -0.065212 -0.0513593 0.0212213 0.000423 -0.923951 0.587987 -2.83926 2650 
159 1 -0.0646694 -0.0494512 0.0228214 0.000423 0.632646 -0.773493 1.79274 2650 
577 1 -0.0642549 -0.0591032 0.0239636 0.000423 0.395838 -0.34344 1.06138 2650 
2460 1 -0.0621445 -0.0550592 0.0290001 0.000423 -0.360244 -0.808446 -0.77197 2650 
2234 1 -0.0616046 -0.051908 0.0301301 0.000423 -0.0494493 -0.204724 -0.101105 2650 
3583 1 -0.0616243 -0.0603742 0.0307811 0.000116 -5.42485 1.3442 -10.8607 2650 
1227 1 -0.0609471 -0.0529036 0.0314387 0.000423 -0.244754 -0.356794 -0.474481 2650 
2247 1 -0.0610525 -0.0501286 0.0312337 0.000423 -1.38049 0.647044 -2.69843 2650 
4023 1 -0.0606429 -0.0611757 0.0326721 0.000116 -0.765228 -0.687513 -1.42034 2650 
3464 1 -0.0537532 -0.0626125 0.0348822 0.000116 -3.83873 -0.243479 -11.2018 2650 
1208 1 -0.0592123 -0.0560074 0.0353428 4.2e-05 -1.56747 -0.137025 -2.6261 2650 
3640 1 -0.0566899 -0.0617894 0.0385398 0.000423 -0.0398757 0.281867 -1.19566 2650 
312 1 -0.0560223 -0.0605029 0.0400815 0.000116 -0.241598 -0.0172659 -0.337685 2650 
4068 1 -0.0551385 -0.0492027 0.0407762 0.000423 0.0305929 -0.357812 0.0413684 2650 
2672 1 -0.0500207 -0.0620813 0.0469141 0.000423 -5.57679 0.0374913 -5.94608 2650 
169 1 -0.0503131 -0.0572457 0.0470491 0.000116 -6.61609 0.731921 -7.07507 2650 
800 1 -0.0486275 -0.0604465 0.0483563 0.000423 -3.44011 0.0525991 -3.4594 2650 
1955 1 -0.0477246 -0.0551922 0.0496728 0.000116 -1.22736 0.0887255 -1.17923 2650 
4098 1 -0.0446756 -0.0523404 0.0520292 0.000423 0.649721 -0.0519907 0.557891 2650 
1207 1 -0.0449502 -0.0624314 0.0522942 4.2e-05 -9.14931 0.064267 -7.86441 2650 
2130 1 -0.042212 -0.0489201 0.0540471 0.000423 1.66589 -0.552118 1.3011 2650 
1841 1 -0.0394161 -0.0618562 0.0564925 0.000116 -8.56141 0.602917 -5.97348 2650 
3747 1 -0.0340886 -0.0536839 0.0595056 0.000423 -0.854461 1.21895 -0.48949 2650 
1174 1 -0.0331723 -0.0478115 0.0603707 0.000116 -4.86004 -1.09628 -2.67048 2650 
3090 1 -0.027822 -0.0524672 0.0626808 0.000423 0.798349 0.0711295 0.354362 2650 
78 1 -0.0280447 -0.0491575 0.0629167 0.000116 -0.0495609 1.73627 -0.0220915 2650 
1752 1 -0.0179255 -0.0612392 0.0665874 4.2e-05 -0.284411 -0.0196578 -0.0765643 2650 
2527 1 -0.0168902 -0.057252 0.0668575 4.2e-05 1.45616 0.493025 0.36787 2650 
1079 1 -0.0174022 -0.0510986 0.0666497 0.000116 -5.4176 -0.947487 -1.41453 2650 
753 1 -0.0162441 -0.0460878 0.0669414 0.000116 -0.87341 -0.270742 -0.211943 2650 
2269 1 -0.00871071 -0.0605364 0.0683311 0.000116 -0.661201 -0.61946 -0.0842885 2650 
2937 1 -0.00219648 -0.0591559 0.0688491 0.000116 -3.22059 0.0304719 -0.102746 2650 
2382 1 -0.00448607 -0.0342923 -0.0687379 0.000116 -0.46242 -1.09161 0.0301791 2650 
1493 1 -0.00173426 -0.0186876 -0.0688623 0.000116 -1.74933 -0.263778 0.0440559 2650 
3945 1 -0.00606819 -0.0163925 -0.0686905 4.2e-05 -1.9866 -0.340211 0.175499 2650 
2714 1 -0.000163811 -0.0144087 -0.068843 0.000116 -1.35727 0.698828 -0.150418 2650 
4016 1 -0.00444192 -0.00745932 -0.0687408 0.000116 -1.8676 -0.430608 0.120681 2650 
1757 1 -0.00434515 -0.00569514 -0.068821 4.2e-05 -3.6931 0.430292 0.233171 2650 
3920 1 -0.00249589 -0.00339825 -0.0688389 0.000116 -2.1632 -0.340622 0.0784312 2650 
55 1 -0.0032937 -0.0339808 -0.0684989 0.000423 -1.519 -0.393279 0.0730393 2650 
2001 1 -0.00123085 -0.0341868 -0.068567 0.000423 -1.34587 -0.395231 0.0241598 2650 
1031 1 -0.00192531 -0.0335783 -0.068551 0.000423 -1.40176 -0.425605 0.0393697 2650 
1202 1 -0.00646896 -0.0267578 -0.0686539 4.2e-05 5.71253 0.442915 -0.538267 2650 
1206 1 -0.00665271 -0.0223328 -0.0686364 4.2e-05 9.66767 2.80491 -0.937059 2650 
4320 1 -0.00128127 -0.0177768 -0.0685661 0.000423 -1.76743 -0.191165 0.0330274 2650 
437 1 -0.00697602 -0.0170718 -0.0686043 4.2e-05 -1.52606 -0.335928 0.155177 2650 
2327 1 -0.00275347 -0.016674 -0.0685228 0.000423 -1.65177 -0.249263 0.0663736 2650 
1364 1 -0.00126521 -0.0162973 -0.0685664 0.000423 -1.87255 -0.0434671 0.0345531 2650 
3959 1 -0.000283208 -0.0161557 -0.0685775 0.000423 -1.83929 -0.0782097 0.00759583 2650 
2317 1 -0.0074586 -0.0141645 -0.067938 0.000656 -1.44674 0.160441 0.158831 2650 
4250 1 -0.00536179 -0.0136241 -0.0686751 0.000116 -2.21437 -0.192792 0.172886 2650 
3040 1 -0.00825453 -0.0128775 -0.0683878 0.000116 -1.35339 -0.271023 0.163357 2650 
1503 1 -0.00553695 -0.0124226 -0.0686612 0.000116 -1.46356 -0.447071 0.118024 2650 
2196 1 -0.0099 -0.0104392 -0.0682437 4.2e-05 -3.17072 -0.197998 0.459971 2650 
1433 1 -0.00677024 -0.00950057 -0.06801 0.000656 -1.81015 -0.201933 0.180196 2650 
4048 1 -0.00925971 -0.006393 -0.0683335 4.2e-05 -2.80186 -2.78927 0.379674 2650 
3350 1 -0.00950971 -0.0054689 -0.0682245 0.000116 -1.53578 -0.451533 0.21407 2650 
2634 1 -0.00944535 -0.00400467 -0.0683081 4.2e-05 -2.75292 0.131578 0.380662 2650 
670 1 -0.00490801 -0.00471953 -0.0681697 0.000656 -1.54002 0.135762 0.110877 2650 
2578 1 -0.00131712 -0.00412343 -0.0685654 0.000423 -1.59078 -0.161045 0.0305583 2650 
3227 1 -0.00292087 -0.000613058 -0.0685158 0.000423 -1.626 -0.0194621 0.0693173 2650 
1781 1 -4.92982e-05 -0.000445899 -0.068578 0.000423 -1.44245 -0.017252 0.00103692 2650 
3743 1 -0.0118929 -0.0203736 -0.0674528 0.000423 2.21269 0.0652048 -1.08309 2650 
2813 1 -0.0153013 -0.0164257 -0.0671632 0.000116 -1.89094 -0.139415 0.430799 2650 
1550 1 -0.0115111 -0.014002 -0.0673698 0.000656 -0.52003 0.523298 0.088855 2650 
725 1 -0.0137054 -0.00719376 -0.0675069 0.000116 -2.33072 -0.22907 0.473187 2650 
1172 1 -0.0126676 -0.00753315 -0.0677093 0.000116 -1.81561 -0.602799 0.339678 2650 
3527 1 -0.00989137 -0.00723822 -0.067861 0.000423 -1.86472 0.201434 0.2718 2650 
2873 1 -0.0116055 -0.00581295 -0.0675889 0.000423 -1.23859 -0.315951 0.212701 2650 
1046 1 -0.0123517 -0.00437071 -0.0677677 0.000116 -2.35213 0.521986 0.428736 2650 
3519 1 -0.0117545 -0.00399997 -0.0673278 0.000656 -1.67104 0.0829913 0.291816 2650 
1183 1 -0.0141429 -0.00343533 -0.0674166 0.000116 -1.6497 -0.402062 0.346079 2650 
355 1 -0.0115798 -0.00287038 -0.0675933 0.000423 -1.5178 0.112691 0.260022 2650 
4074 1 -0.0121484 -0.000884411 -0.0674935 0.000423 -1.91238 -0.0262553 0.344217 2650 
3807 1 -0.0147521 -0.020672 -0.0666012 0.000116 13.1667 -0.0199639 -2.08312 2650 
691 1 -0.0160008 -0.0186547 -0.0666853 0.000423 -2.14861 -0.00663728 0.515548 2650 
2349 1 -0.0173008 -0.0152039 -0.0663599 0.000423 -1.1992 -0.329624 0.312853 2650 
2663 1 -0.0160113 -0.0138496 -0.0666827 0.000423 -1.65254 -0.17459 0.396794 2650 
2118 1 -0.015242 -0.0128734 -0.0668628 0.000423 -1.59216 -0.215586 0.362946 2650 
3764 1 -0.0161879 -0.0117352 -0.0666401 0.000423 -3.08128 -0.354085 0.748492 2650 
3409 1 -0.0137156 -0.00142524 -0.0669558 0.000656 -1.77587 -0.0610225 0.363778 2650 
3878 1 -0.0143856 -0.000422989 -0.0670523 0.000423 -1.76229 2.90096e-08 0.378086 2650 
2248 1 -0.0180043 -0.0175598 -0.0661724 0.000423 -0.491936 -0.32126 0.133846 2650 
213 1 -0.0183039 -0.0165417 -0.0659364 4.2e-05 -3.68506 -4.74686 2.71602 2650 
534 1 -0.0194459 -0.014998 -0.0660824 0.000116 -2.32451 -1.59907 0.68403 2650 
2538 1 -0.0171624 -0.0140689 -0.0661563 0.000656 -1.77547 -0.0471308 0.460596 2650 
1325 1 -0.0168847 -0.0101261 -0.0662277 0.000656 -1.93514 0.0655987 0.493363 2650 
91 1 -0.0192492 -0.00923906 -0.0661399 0.000116 -2.13478 -0.533805 0.6213 2650 
2560 1 -0.0179863 -0.00921014 -0.0661774 0.000423 -2.07969 0.0335812 0.565238 2650 
3319 1 -0.0181955 -0.00750076 -0.0661201 0.000423 -2.01341 0.142016 0.554069 2650 
1417 1 -0.0160923 -0.0412565 -0.0651115 0.000116 2.80808 0.286325 -0.935997 2650 
1734 1 -0.0213145 -0.0160546 -0.0655035 0.000116 -2.20983 -0.246934 0.719067 2650 
4217 1 -0.000214233 -0.0147285 -0.0654162 0.000423 -3.02219 -0.789356 -0.0695822 2650 
528 1 -0.0222419 -0.0114207 -0.0651945 0.000116 -1.24033 0.356339 0.423154 2650 
2367 1 -0.021773 -0.00617194 -0.0653526 0.000116 -0.50496 -0.0283597 0.168233 2650 
4052 1 -0.0214834 -0.0033342 -0.0655261 4.2e-05 0.461762 1.47434 -0.151393 2650 
856 1 -0.0218684 -0.00275373 -0.0647758 0.000116 -0.812451 3.66326 -0.203841 2650 
1278 1 -0.0235286 -0.00170224 -0.0647412 0.000116 0.406506 1.04923 -0.147735 2650 
827 1 -0.0258559 -0.0291659 -0.0638474 0.000116 -0.302627 -0.817793 0.122553 2650 
1453 1 -0.0256422 -0.0153932 -0.0636037 0.000423 -1.18894 0.107008 0.47933 2650 
4110 1 -0.0277735 -0.0421422 -0.0627023 0.000423 -0.332726 0.0687533 0.31792 2650 
1958 1 -0.0277395 -0.0386602 -0.0630519 0.000116 3.92509 2.09248 -1.72683 2650 
3619 1 -0.0280288 -0.0194773 -0.0630047 4.2e-05 -2.23603 -1.25179 0.994738 2650 
2703 1 -0.0289714 -0.00311827 -0.0624954 0.000116 -0.703284 0.620843 0.326026 2650 
3582 1 -0.0310068 -0.0158819 -0.061511 0.000116 1.06677 0.445689 -0.53774 2650 
1886 1 -0.0311147 -0.00479112 -0.0611132 0.000423 -1.17771 -0.216256 0.599609 2650 
13 1 -0.0316554 -0.00272167 -0.0608349 0.000423 -1.13188 0.150924 0.588971 2650 
1020 1 -0.0312719 -0.000470228 -0.0610329 0.000423 -1.57196 0.0676454 0.805415 2650 
3741 1 -0.0330083 -0.0399234 -0.0601115 0.000423 -0.691483 -0.179957 0.379706 2650 
2139 1 -0.0320515 -0.000473646 -0.0606271 0.000423 -1.51334 -0.00544202 0.800069 2650 
3393 1 -0.0340703 -0.0403928 -0.0599535 4.2e-05 -1.47131 -0.864641 0.836114 2650 
902 1 -0.0356574 -0.0408999 -0.0585713 0.000423 1.33317 0.313852 -0.625666 2650 
2091 1 -0.0351427 -0.0373994 -0.058619 0.000656 -0.522265 -0.322846 0.313104 2650 
491 1 -0.0356031 -0.000437486 -0.058612 0.000423 -0.677602 0.15357 0.411594 2650 
631 1 -0.0236308 -0.041462 -0.0576709 0.000116 13.3395 0.143182 -0.145698 2650 
2790 1 -0.0363169 -0.0333569 -0.0581724 0.000423 -1.23075 -0.00796832 0.768353 2650 
152 1 -0.0360094 -0.00858104 -0.0583633 0.000423 -1.69451 -0.162059 1.04549 2650 
2376 1 -0.03671 -0.00315226 -0.0582872 0.000116 -0.470124 -1.20404 0.29609 2650 
3963 1 -0.0363848 -0.000803753 -0.05813 0.000423 -0.658285 -0.209039 0.41203 2650 
2959 1 -0.035846 -0.0237089 -0.0573721 4.2e-05 0.1268 -2.50734 0.537361 2650 
358 1 -0.0372832 -0.0222208 -0.0575579 0.000423 1.88478 0.807155 -1.22086 2650 
1341 1 -0.0385108 -0.0391088 -0.0567439 0.000423 -1.23506 -0.200937 0.838205 2650 
1462 1 -0.0387634 -0.00757301 -0.0565716 0.000423 -1.03337 0.0441307 0.708076 2650 
322 1 -0.0266107 -0.00056165 -0.0566826 4.2e-05 10.4494 -0.506942 1.49218 2650 
1640 1 -0.0403604 -0.0153546 -0.0559129 4.2e-05 1.30325 -0.620002 -0.940745 2650 
3479 1 -0.0403922 -0.00329772 -0.0557987 0.000116 -0.484269 0.164662 0.350558 2650 
394 1 -0.0413926 -0.0260998 -0.0550607 0.000116 0.0111353 1.0147 -0.0083711 2650 
822 1 -0.0417617 -0.000546353 -0.0543958 0.000423 -0.862927 -0.0280169 0.662502 2650 
2765 1 -0.0437657 -0.0257752 -0.0527969 0.000423 -0.263413 0.660487 0.218354 2650 
4297 1 -0.0440839 -0.000642326 -0.0525315 0.000423 -1.11112 -0.0352681 0.932445 2650 
4150 1 -0.0453936 -0.00110486 -0.0518116 0.000116 -1.17748 -0.0328993 1.03163 2650 
3904 1 -0.0457758 -0.000405205 -0.0514747 0.000116 -1.19639 0.308805 1.28129 2650 
4213 1 -0.0451138 -0.000670775 -0.0516498 0.000423 -1.12778 -0.0421811 0.98508 2650 
1239 1 -0.0460973 -0.0413512 -0.0507739 0.000423 -0.52082 -0.388249 0.472849 2650 
3375 1 -0.0465687 -0.0176809 -0.050758 0.000116 0.902847 2.02321 -0.82833 2650 
1008 1 -0.0473385 -0.0360815 -0.0496187 0.000423 -0.202952 -0.610693 0.193626 2650 
2208 1 -0.046923 -0.00807005 -0.0496934 0.000656 -1.37098 -0.46847 1.29455 2650 
3748 1 -0.0488273 -0.0387972 -0.0481543 0.000423 -0.796016 -0.203243 0.807141 2650 
1132 1 -0.0482166 -0.00754463 -0.0487658 0.000423 -1.43053 -0.278224 1.41442 2650 
2717 1 -0.0493459 -0.0291835 -0.0480625 0.000116 0.60966 1.10021 -0.625941 2650 
1180 1 -0.051218 -0.0235084 -0.0460623 0.000116 -0.865648 -0.0139761 0.962539 2650 
3153 1 -0.0514512 -0.0299746 -0.0458018 0.000116 5.08419 1.11642 -5.7113 2650 
3636 1 -0.0512486 -0.0213555 -0.045569 0.000423 -0.975729 0.314107 1.09734 2650 
502 1 -0.0503041 -0.0202668 -0.0455142 0.000116 2.37888 -0.232456 -0.637098 2650 
2112 1 -0.0528568 -0.0334886 -0.0436933 0.000423 -0.355125 -0.392778 0.429602 2650 
1047 1 -0.0534742 -0.00702737 -0.0434227 0.000116 -0.991658 -0.314499 1.22121 2650 
4006 1 -0.0533627 -0.00108041 -0.0435597 0.000116 -0.0332571 -0.177628 0.0407416 2650 
1805 1 -0.0537257 -0.0430123 -0.0426204 0.000423 -0.575625 -0.0383436 0.72561 2650 
2143 1 -0.0531808 -0.042945 -0.0432984 0.000423 -0.538382 -0.257562 0.661263 2650 
2018 1 -0.0539326 -0.0366164 -0.0423582 0.000423 -0.558192 -0.0428952 0.710711 2650 
1404 1 -0.0545215 -0.0352971 -0.0421002 0.000116 0.176968 -0.68024 -0.229181 2650 
2340 1 -0.0544616 -0.0366606 -0.0416758 0.000423 -0.48057 0.116505 0.628012 2650 
1612 1 -0.0536617 -0.000126032 -0.040981 0.000116 0.935469 0.00586802 -0.750041 2650 
3431 1 -0.0559795 -0.0332067 -0.0396137 0.000423 -0.677532 0.0805232 0.957444 2650 
4342 1 -0.0561397 -0.0284612 -0.0399169 0.000116 2.14013 -0.803199 -3.00991 2650 
1968 1 -0.0559928 -0.00470716 -0.0401227 0.000116 -0.346875 -0.48934 0.484078 2650 
2875 1 -0.0558972 -0.00151308 -0.0397298 0.000423 -1.1679 -0.0928718 1.64316 2650 
2418 1 -0.0461533 -0.0410574 -0.0388702 4.2e-05 7.37755 0.494618 -0.336647 2650 
1224 1 -0.0564075 -0.00122231 -0.0390018 0.000423 -1.07637 -0.00184376 1.55673 2650 
3233 1 -0.00117411 -0.00608933 -0.038679 0.000423 -0.176499 -0.297184 -5.92819 2650 
343 1 -0.0569192 -0.00142016 -0.0382513 0.000423 -1.06323 -0.0524527 1.58213 2650 
1945 1 -0.0580535 -0.0132434 -0.0370784 0.000116 -0.989249 0.218183 1.54886 2650 
365 1 -0.0579776 -0.0230686 -0.0366271 0.000423 -0.541479 -0.0849643 0.857115 2650 
3543 1 -0.0589668 -0.0361951 -0.0350123 0.000423 -0.423475 -0.34313 0.713206 2650 
3692 1 -0.0594767 -0.0333808 -0.0347497 0.000116 0.445472 -0.826034 -0.762459 2650 
3882 1 -0.0592311 -0.00920421 -0.0345634 0.000423 -1.59419 -0.294961 2.73196 2650 
2169 1 -0.0601407 -0.0189265 -0.0335875 0.000116 3.21102 2.00925 -5.74955 2650 
440 1 -0.060165 -0.00687625 -0.0336954 4.2e-05 -1.56451 -0.156696 2.79352 2650 
3881 1 -0.0601014 -0.0315054 -0.0330269 0.000423 -0.497473 -0.25617 0.905287 2650 
419 1 -0.0609103 -0.026689 -0.0321709 0.000116 1.38853 -0.638967 -2.62896 2650 
1938 1 -0.061334 -0.0255338 -0.0313555 0.000116 0.0356199 -0.309653 -0.0696756 2650 
3330 1 -0.0610188 -0.00312725 -0.0312994 0.000423 -0.865893 -0.134756 1.68808 2650 
3196 1 -0.0615685 -0.00651011 -0.0302037 0.000423 -0.615167 0.111814 1.25398 2650 
4373 1 -0.0617848 -0.0200829 -0.029694 4.2e-05 5.11236 -0.316317 1.57947 2650 
3418 1 -0.0618388 -0.00431913 -0.0296464 0.000423 -0.540613 0.827075 1.12766 2650 
733 1 -0.0624296 -0.00352322 -0.029113 0.000116 -0.657185 0.204269 1.40926 2650 
2846 1 -0.0631545 -0.0183458 -0.0276896 4.2e-05 -0.949153 -0.49073 2.16483 2650 
3477 1 -0.0630937 -0.00297926 -0.0276444 0.000116 -1.29095 -0.36411 2.94638 2650 
1185 1 -0.063081 -0.0353657 -0.0276734 0.000116 1.50101 1.20591 -3.42153 2650 
2066 1 -0.0580559 -0.0212174 -0.0276625 0.000116 6.734 -0.447912 -7.58099 2650 
871 1 -0.0633962 -0.0183418 -0.0271316 4.2e-05 0.0443344 0.00877372 -0.103592 2650 
1712 1 -0.0637509 -0.0445604 -0.026093 0.000116 0.00948604 0.0650749 -0.0231764 2650 
3688 1 -0.0637319 -0.033069 -0.0261394 0.000116 -0.39274 0.368139 0.957563 2650 
1915 1 -0.0631957 -0.0168435 -0.0266317 0.000423 -0.714503 -0.108841 1.69548 2650 
2848 1 -0.064511 -0.0120362 -0.0243626 4.2e-05 0.212574 1.82556 -0.562888 2650 
4345 1 -0.0636159 -0.000147758 -0.022467 0.000116 1.34049 -0.0161833 -1.70045 2650 
2212 1 -0.0649566 -0.0410291 -0.0212567 0.000656 -0.230194 0.228029 0.702926 2650 
3426 1 -0.0654234 -0.0103985 -0.0205603 0.000423 -0.405047 -0.00218794 1.28887 2650 
1528 1 -0.0656272 -0.00495544 -0.0209306 0.000116 -1.24105 -1.65066 3.89127 2650 
4331 1 -0.0657373 -0.0415841 -0.0205824 0.000116 0.92553 0.661384 -2.95602 2650 
1922 1 -0.065553 -0.00835097 -0.0201433 0.000423 -0.416841 0.0362165 1.35654 2650 
3502 1 -0.0654345 -0.0432573 -0.019816 4.2e-05 5.40659 -0.339077 -10.347 2650 
1083 1 -0.0660571 -0.00629781 -0.0195317 0.000116 -0.487428 -0.538157 1.64851 2650 
2131 1 -0.0661621 -0.0110085 -0.0180424 0.000423 -0.285404 0.343199 1.04658 2650 
2775 1 -0.066264 -0.00468549 -0.0176644 0.000423 -0.407216 -0.177433 1.52758 2650 
453 1 -0.0665192 -0.00195997 -0.0166778 0.000423 -0.456496 -0.2007 1.82073 2650 
606 1 -0.000183 0.00109203 -0.016592 0.000116 0 -0.011753 0 2650 
2726 1 -0.000627308 0.00922802 -0.0166197 0.000116 -0.00741369 0.00988612 -0.041436 2650 
2353 1 -0.066557 -0.0156067 -0.0165261 0.000423 -0.117748 0.189318 0.474216 2650 
3646 1 -0.0656553 -0.00681439 -0.0157929 0.000423 1.95038 -0.254933 3.4307 2650 
999 1 -8.01843e-05 0.000282978 -0.0158246 0.000656 -0.00841998 -0.0161411 -0.0218233 2650 
2013 1 -0.00302601 0.00313744 -0.0158409 0.000423 -0.00154235 0.00221798 0.00156406 2650 
2301 1 -0.00435874 0.00327622 -0.0159777 4.2e-05 -0.00116259 -0.0070103 0.00459775 2650 
4227 1 -0.000295362 0.00332156 -0.0164664 0.000116 0.00593372 -0.017543 0.0130313 2650 
2283 1 -0.00353151 0.00465704 -0.0163661 0.000116 -0.00010552 0.00956354 0.000789399 2650 
2520 1 -0.000153341 0.00490434 -0.0164911 4.2e-05 0.00318265 0.000380138 0.00682554 2650 
978 1 -0.00188179 0.00620218 -0.0164505 0.000116 0.0180122 -0.00353228 -0.00159853 2650 
3934 1 -0.001977 0.00585403 -0.016218 0.000116 0 -0.011753 0 2650 
3365 1 -0.00149808 0.00633911 -0.0162755 0.000116 0.015804 0.0241832 0.0212134 2650 
3150 1 -0.00239829 0.0100119 -0.0161712 0.000116 -0.0182263 -0.0087302 -0.0269448 2650 
938 1 -0.0015419 0.00993767 -0.0161002 0.000116 -0.00119823 0.000558801 -0.00633771 2650 
302 1 -0.00212928 0.0104911 -0.0165587 0.000116 -0.0347922 0.0241041 0.0152166 2650 
1483 1 -0.000495805 0.010606 -0.0164173 0.000423 -0.000431738 0.0094693 0.00416488 2650 
3007 1 -0.00301779 0.0116359 -0.0160406 0.000423 -0.00754521 0.0118776 -0.00214285 2650 
3051 1 -0.00139646 0.012485 -0.0162777 0.000116 0.163555 -0.227841 -0.0207843 2650 
371 1 -0.000616854 0.0120517 -0.016309 0.000423 -0.00963196 0.00951459 -0.00479058 2650 
188 1 -0.00331527 0.0137758 -0.0160856 0.000116 -0.0148612 0.0228045 0.00418427 2650 
2182 1 -0.00148312 0.0143608 -0.0159828 0.000116 0.00266263 0.0360122 0.0211071 2650 
2713 1 -0.000699176 0.0162684 -0.0158471 0.000116 0.00037122 0.035974 0.00535071 2650 
93 1 -0.0046875 0.0208043 -0.0160514 0.000116 0.0714693 0.0500535 -0.0191255 2650 
1717 1 -0.00413047 0.0315788 -0.0163404 0.000116 0.0090039 0.0753863 0.0163861 2650 
2264 1 -0.000957724 0.052555 -0.0162634 0.000116 -0.0637592 0.11185 0.0253368 2650 
30 1 -0.00240687 -0.00256083 -0.015355 0.000423 -0.0139928 -0.0214008 0.00726417 2650 
3011 1 -0.000261506 -0.00285561 -0.0152348 0.000423 0.0180353 -0.0317081 -0.0392676 2650 
3576 1 -5.37668e-05 -0.00137411 -0.0157826 0.000116 0.0561059 0.00120064 -0.0311085 2650 
2399 1 -0.002418 0.00130603 -0.015541 0.000116 0 -0.011753 0 2650 
3637 1 -0.00550329 0.00438295 -0.0152418 0.000423 -0.00704251 0.0124689 0.006236 2650 
1679 1 -0.0043427 0.0051931 -0.0157257 0.000423 -0.00453172 0.0157125 0.00260684 2650 
889 1 -0.00103122 0.00477822 -0.0156722 0.000656 0.0221019 0.0158351 0.0220207 2650 
1827 1 -0.00418662 0.00661906 -0.0153273 0.000116 -0.00517626 -0.0457281 -0.00851659 2650 
3830 1 -0.006879 0.00740603 -0.015411 4.2e-05 0 -0.011753 0 2650 
2438 1 -0.00628545 0.00723665 -0.0151673 0.000423 -0.00472103 -0.000373669 -0.00125399 2650 
2313 1 -0.00324641 0.00789008 -0.0150602 0.000656 0.00750763 0.00230554 0.0199624 2650 
70 1 -0.00198207 0.0136049 -0.0154886 0.000116 0.0560864 0.0328811 0.00597028 2650 
2793 1 -0.000878039 0.013506 -0.0151878 0.000423 0.00400332 0.0260717 0.000754087 2650 
3838 1 -0.00508906 0.0144984 -0.0154144 0.000656 0.0157867 0.0260395 0.00729433 2650 
2466 1 -0.00225251 0.0230771 -0.0153773 0.000423 0.0618857 0.0331724 -0.00268308 2650 
1195 1 -0.00251449 0.0358059 -0.0150917 0.000116 0.0557766 0.0782116 -0.0138054 2650 
1053 1 -0.007469 -0.00253597 -0.014946 0.000116 0 -0.011753 0 2650 
857 1 -0.0080584 0.00358268 -0.0146939 0.000116 -0.0319262 0.0179271 0.0379105 2650 
3787 1 -0.00686951 0.00394876 -0.0147504 0.000116 -0.0024271 -0.00223267 -0.0195234 2650 
1611 1 -0.00106251 0.00399589 -0.014945 0.000116 0.0444256 -0.019621 0.0278665 2650 
1192 1 -0.00717927 0.00656602 -0.0146828 0.000116 0.00510585 0.0133553 0.012363 2650 
581 1 -0.00559462 0.00812018 -0.014421 0.000423 0.00044719 0.0010883 0.00185987 2650 
3364 1 -0.00680098 0.00869058 -0.0149529 0.000116 -0.00179506 0.0163753 -0.0232219 2650 
2851 1 -0.00851777 0.0107809 -0.0145664 4.2e-05 -0.209059 -0.12398 0.156693 2650 
2774 1 -0.00708658 0.0106655 -0.0144158 0.000423 -0.0403569 0.0250138 -0.0137733 2650 
86 1 -0.00522059 0.0110343 -0.0149264 0.000116 -0.0196067 0.0126222 0.000798653 2650 
2781 1 -0.00564829 0.0114048 -0.014737 0.000423 0.00977627 0.0105103 0.0120467 2650 
2969 1 -0.00271557 0.0111065 -0.0148152 0.000656 -0.00667616 0.014076 0.00443217 2650 
2453 1 -0.00593942 0.0125036 -0.0142258 0.000423 0.00287214 0.0261989 -0.0126472 2650 
1228 1 -0.00274129 0.0141049 -0.014669 0.000423 -0.0165339 0.0339414 0.00465399 2650 
2191 1 -0.00238502 0.0134899 -0.0144854 4.2e-05 -0.00764734 0.00298638 -0.00836536 2650 
3644 1 -0.00138688 0.0146848 -0.0145922 0.000423 -0.0118967 0.0391079 0.0034562 2650 
2585 1 -0.00207043 0.0283361 -0.0149091 0.000116 -0.0221426 0.0759057 0.0070692 2650 
2147 1 -0.0674396 -0.0157155 -0.0140328 0.000116 -0.121927 -0.63767 0.58596 2650 
4244 1 -0.00376959 -0.00327879 -0.0140389 0.000116 -0.0436806 -0.00994679 0.0125723 2650 
736 1 -0.00893492 -0.00192964 -0.0140278 0.000116 -0.0307431 -0.0170391 0.0144389 2650 
509 1 -0.0078884 -0.000897667 -0.014098 0.000116 -0.00480979 -0.0076817 0.0108723 2650 
2396 1 -0.0674329 -0.000621786 -0.0140649 0.000116 -0.42139 0.191989 2.02033 2650 
1763 1 -0.00384166 -0.000424203 -0.0134214 0.000656 0.0110536 0.0386342 0.0470271 2650 
1991 1 -0.00863298 0.000152607 -0.0137132 0.000656 -0.0192457 -0.00223252 0.00858771 2650 
2666 1 -0.00763107 0.00322494 -0.0141521 0.000423 0.0107963 0.0809594 0.0204513 2650 
763 1 -0.00725173 0.00324577 -0.0138126 4.2e-05 0.0429385 0.0136209 0.0378616 2650 
220 1 -0.00328544 0.00375626 -0.0136596 4.2e-05 0.00197382 0.00663681 0.00671825 2650 
1288 1 -0.002467 0.00503503 -0.014044 0.000116 0 -0.011753 0 2650 
3515 1 -0.00857644 0.00631952 -0.0135549 0.000656 -0.00454215 -0.00749919 0.00616721 2650 
1618 1 -0.00942565 0.00763615 -0.0138776 0.000116 0.0059414 0.00192455 -0.00369393 2650 
1769 1 -0.00865451 0.00781598 -0.0136107 0.000656 -0.00763615 -0.00751468 0.00847974 2650 
2483 1 -0.00561164 0.00739389 -0.0135681 0.000116 0.00771374 -0.0189039 -0.0218467 2650 
233 1 -0.00317759 0.00867067 -0.0141742 0.000423 0.0114684 -0.00558491 0.0116559 2650 
4190 1 -0.00933903 0.00946024 -0.013592 0.000423 -0.00626579 0.00565015 0.00416389 2650 
842 1 -0.00793387 0.00886123 -0.014025 0.000116 -0.0132472 -0.000581938 -0.0143857 2650 
1409 1 -0.000529566 0.0087957 -0.0139151 0.000116 -0.00338114 -0.0124825 -0.00177889 2650 
793 1 -7.43526e-05 0.00943306 -0.0139243 0.000423 -0.00384688 0.00642406 -0.0108379 2650 
438 1 -0.00878727 0.0110963 -0.01396 4.2e-05 0.00854646 0.00400873 0.0554682 2650 
1802 1 -0.00320544 0.0123906 -0.0141376 0.000423 0.00500259 -0.000364755 -0.0111755 2650 
2345 1 -0.00179964 0.0138233 -0.0139881 0.000423 -0.0175833 0.0131789 -0.0282092 2650 
128 1 -0.000898168 0.0142466 -0.0140516 0.000423 -0.00458662 0.0273274 -0.00640456 2650 
3145 1 -0.00898681 0.0150952 -0.0140362 0.000116 0.00413084 0.0258652 0.0123186 2650 
3471 1 -0.00738502 0.0151056 -0.0139571 0.000116 0.00654915 0.0415659 -0.0136084 2650 
1839 1 -0.00765774 0.0165172 -0.0134625 0.000116 -0.0676852 0.0211351 0.0188737 2650 
2924 1 -0.00965114 0.017114 -0.0138325 0.000116 -0.0447463 0.0323973 0.0311383 2650 
3165 1 -0.00967632 0.0217126 -0.0137531 0.000116 -0.191147 0.128307 0.140346 2650 
4234 1 -0.0047529 0.0345139 -0.0139403 0.000116 0.00512064 0.0508026 0.0366661 2650 
4010 1 -0.00557595 0.0457269 -0.0134376 0.000116 0.0373387 0.0604042 0.0259593 2650 
3211 1 -0.00682087 0.0548011 -0.0140016 0.000423 0.121461 0.0923792 -0.0696515 2650 
4308 1 -0.0674005 -0.0289287 -0.0126539 0.000423 -0.344833 0.0242734 1.83674 2650 
4187 1 -0.0672894 -0.000422973 -0.013232 0.000423 -0.457945 1.08744e-07 2.3288 2650 
623 1 -0.00874082 -0.000115275 -0.0126771 0.000116 -0.00176155 0.0164163 -0.0155171 2650 
2609 1 -0.00852811 0.00130561 -0.013411 0.000116 -0.00705034 0.0126459 0.00789545 2650 
2922 1 -0.0082136 0.00131197 -0.0132446 0.000116 -0.00925852 -0.000802711 0.00675368 2650 
2512 1 -0.00623752 0.000974653 -0.0132671 0.000116 0.018779 -0.0192413 0.00230208 2650 
3917 1 -0.003984 0.00156303 -0.012703 0.000116 0 -0.011753 0 2650 
3316 1 -0.0101359 0.00174999 -0.0130026 0.000423 -0.00552961 -0.00411585 -0.00161779 2650 
2059 1 -0.003583 0.00177203 -0.012756 0.000116 0 -0.011753 0 2650 
2913 1 -0.00960092 0.00298436 -0.0133681 0.000116 -0.0269546 0.0385212 -0.00427738 2650 
4374 1 -0.00954791 0.00304824 -0.0130057 4.2e-05 -0.00342399 0.0134868 -0.018776 2650 
2473 1 -0.00945404 0.00249116 -0.0131551 0.000423 -0.0437212 0.0367029 0.0424505 2650 
3289 1 -0.00501408 0.00355301 -0.0127333 4.2e-05 0.00210041 -0.0118729 -0.0396069 2650 
1427 1 -0.002948 0.00410303 -0.013376 4.2e-05 0 -0.011753 0 2650 
3362 1 -0.00259912 0.00463665 -0.0130392 0.000116 0.000350619 -0.00253681 -0.00404217 2650 
3071 1 -0.0102531 0.00511451 -0.012778 4.2e-05 -0.0100464 -0.00669175 -0.0253889 2650 
2322 1 -0.00933256 0.00493822 -0.0131862 0.000656 -0.00463581 -0.0140818 0.00324309 2650 
4179 1 -0.00816528 0.00483411 -0.0128523 0.000423 -0.000889884 -0.0208242 0.00186897 2650 