ITEM: TIMESTEP
12180144
ITEM: NUMBER OF ATOMS
4261
ITEM: BOX BOUNDS ff ff ff
-0.15 0.15
-0.15 0.06
-0.15 0.15
ITEM: ATOMS id type x y z radius vx vy vz density 
3583 1 -0.00381457 -0.0623448 -0.0687784 0.000116 -0.264986 -1.63799 0.0146966 2650 
812 1 -0.00655698 -0.0531024 -0.0682639 0.000423 -1.01438 -0.254778 0.0974349 2650 
482 1 -0.0112098 -0.0616718 -0.0676558 0.000423 0.220527 0.306071 -0.0509315 2650 
420 1 -0.00664467 -0.0625096 -0.0669613 0.000116 4.08381 0.143185 -0.108897 2650 
2690 1 -0.0195994 -0.0560335 -0.0657176 0.000423 -0.929375 -0.0695223 0.277174 2650 
3304 1 -0.0201592 -0.0461245 -0.0655481 0.000423 -1.13015 -0.99424 0.347576 2650 
3966 1 -0.0202966 -0.060392 -0.0655057 0.000423 2.18781 -0.428064 -0.678178 2650 
2460 1 -0.0201334 -0.0620933 -0.0647312 0.000423 11.0763 -0.0103051 -5.32228 2650 
3505 1 -0.0254327 -0.0574659 -0.0640967 4.2e-05 4.91116 -0.396022 -1.94868 2650 
392 1 -0.019876 -0.0560768 -0.064646 0.000116 3.45976 6.07641 0.429094 2650 
1208 1 -0.0286461 -0.0523339 -0.0627265 4.2e-05 5.1957 0.753616 -2.37278 2650 
3069 1 -0.0279271 -0.0505059 -0.0630499 4.2e-05 -2.44947 -0.149893 1.08496 2650 
2001 1 -0.0315425 -0.045564 -0.0608935 0.000423 -0.499037 -0.39877 0.258498 2650 
3261 1 -0.0335891 -0.0561382 -0.0601398 0.000116 3.13205 -0.467672 -1.7493 2650 
4244 1 -0.0345035 -0.0611079 -0.0596199 0.000116 -1.79228 -4.41459 1.03724 2650 
1031 1 -0.0360952 -0.046967 -0.0583102 0.000423 -0.824672 -0.464992 0.510489 2650 
3153 1 -0.0393669 -0.0495137 -0.0565267 0.000116 -1.68467 -0.738427 1.17325 2650 
2829 1 -0.0391387 -0.0481845 -0.0566849 0.000116 2.61812 -0.170067 -1.80771 2650 
4305 1 -0.0396822 -0.0491483 -0.0559309 0.000423 -0.117274 -0.116196 0.0832041 2650 
55 1 -0.0411985 -0.0466617 -0.0548236 0.000423 -0.910876 -0.501984 0.6845 2650 
1377 1 -0.04323 -0.0555008 -0.0536301 0.000116 1.34532 0.0153916 -1.08443 2650 
1008 1 -0.045132 -0.0559709 -0.0516338 0.000423 1.41062 -0.695532 -1.22676 2650 
917 1 -0.0453733 -0.0548162 -0.051422 0.000423 2.28878 0.145548 -2.01955 2650 
1794 1 -0.0458798 -0.0567811 -0.0509706 0.000423 2.48717 -0.279614 -2.23876 2650 
800 1 -0.0458199 -0.0558647 -0.051024 0.000423 1.12776 -0.0535914 -1.01416 2650 
2091 1 -0.0460066 -0.0520422 -0.0505429 0.000656 -0.2454 -0.62091 0.223375 2650 
947 1 -0.0466579 -0.0495208 -0.050676 0.000116 1.28291 -0.0207364 -1.18119 2650 
3155 1 -0.0475329 -0.0501597 -0.0493225 0.000116 -1.59804 1.09925 0.866679 2650 
1768 1 -0.0476719 -0.0483428 -0.0489754 0.000656 0.179471 0.161087 -0.193292 2650 
2589 1 -0.0483136 -0.0477952 -0.0489728 0.000116 0.678317 2.47578 0.605361 2650 
3974 1 -0.0501123 -0.0580467 -0.0468157 0.000423 1.27278 -0.156344 -1.3624 2650 
1239 1 -0.0514496 -0.0483858 -0.0453419 0.000423 -0.181376 0.0719497 0.205808 2650 
1012 1 -0.0523484 -0.0615812 -0.0443012 0.000423 0.52793 -0.629758 -0.623827 2650 
327 1 -0.052825 -0.0587196 -0.0438847 4.2e-05 9.14379 -0.371278 -6.9275 2650 
2404 1 -0.0545327 -0.0476346 -0.0420857 0.000116 0.225018 -1.06459 -0.291232 2650 
3748 1 -0.0537462 -0.0456843 -0.0425945 0.000423 0.26766 -0.257063 -0.337736 2650 
3331 1 -0.0553685 -0.0494096 -0.0404633 0.000423 1.74035 -1.48614 -2.38144 2650 
3549 1 -0.0563438 -0.0503587 -0.0390938 0.000423 0.399648 -0.0945281 -0.575991 2650 
3692 1 -0.0571633 -0.0625337 -0.0384366 0.000116 0.379328 0.845345 -0.563679 2650 
2269 1 -0.0570582 -0.0595985 -0.0385926 0.000116 2.94849 -0.0879594 -4.35928 2650 
534 1 -0.0587896 -0.0506128 -0.0359 0.000116 -0.0452924 -1.02114 0.0741706 2650 
3140 1 -0.0601989 -0.0500814 -0.0334831 0.000116 1.16145 -1.00677 -2.08817 2650 
921 1 -0.0612006 -0.062377 -0.0309437 0.000423 4.66713 2.60766e-07 -9.23066 2650 
2291 1 -0.061906 -0.060394 -0.0302103 0.000116 1.31516 0.0802289 -2.69499 2650 
2143 1 -0.0643468 -0.0517216 -0.0237158 0.000423 -0.145386 -0.408734 0.39447 2650 
3543 1 -0.0644777 -0.0535754 -0.0233574 0.000423 -0.106785 -0.797289 0.294778 2650 
1712 1 -0.0655234 -0.048794 -0.0212535 0.000116 -0.184979 -0.495662 0.570282 2650 
3013 1 -0.0662843 -0.0572197 -0.0175882 0.000423 -0.127068 -0.136365 0.478879 2650 
2599 1 -0.0669066 -0.048877 -0.0163871 0.000116 2.05204 0.446302 -8.37823 2650 
3466 1 -0.067205 -0.0555359 -0.012681 0.000116 0.982237 -3.03142 -5.35897 2650 
3073 1 -0.068213 -0.0545986 -0.0101091 4.2e-05 0.363274 0.238986 -2.45125 2650 
1079 1 -0.0681759 -0.0461872 -0.00985242 0.000116 0.466565 0.859658 -3.2285 2650 
2337 1 -0.0680435 -0.0502895 -0.00854613 0.000423 0.467985 -1.00659 -3.72613 2650 
4009 1 -0.0683993 -0.0468469 0.00815839 0.000116 -0.814964 2.97315 -6.8326 2650 
1869 1 -0.0680405 -0.0523061 0.0112117 4.2e-05 0.273407 0.131029 1.65923 2650 
2937 1 -0.0679546 -0.0492077 0.0112783 0.000116 -0.52757 0.61592 -3.17875 2650 
2100 1 -0.0672998 -0.0557465 0.0119137 0.000656 0.234863 -0.220519 1.32673 2650 
3038 1 -0.0678215 -0.053975 0.0120526 0.000116 0.0456032 0.374118 0.256614 2650 
908 1 -0.0672674 -0.0561897 0.0133435 0.000423 0.249491 -0.236689 1.25774 2650 
1760 1 -0.0677555 -0.0539974 0.0128219 4.2e-05 -1.15943 0.200791 -6.12685 2650 
3812 1 -0.0672911 -0.0618684 0.0147283 0.000116 0.335953 -1.91427 1.53491 2650 
1952 1 -0.0668404 -0.0450991 0.0166546 0.000116 -0.173816 -0.515106 -0.696732 2650 
1227 1 -0.0658887 -0.0622768 0.0189429 0.000423 -0.980671 0.156474 -0.940444 2650 
1634 1 -0.0658832 -0.0615101 0.0201104 0.000116 -0.771651 -1.63249 -2.52799 2650 
1601 1 -0.0657433 -0.0560048 0.0205631 0.000116 -0.189596 0.416611 -0.606166 2650 
95 1 -0.0653268 -0.0565152 0.0218504 0.000116 -3.07876 1.04146 -9.20467 2650 
4251 1 -0.0642946 -0.0534728 0.024723 0.000116 -0.222071 0.669472 -0.577518 2650 
1723 1 -0.0631543 -0.0581045 0.0275055 0.000116 -0.767306 0.456865 -1.76178 2650 
646 1 -0.0623957 -0.0582656 0.0291855 0.000116 0.0452623 0.585566 0.0967663 2650 
4319 1 -0.0613166 -0.0505296 0.0307137 0.000423 -5.84966 1.28437 -11.6782 2650 
4026 1 -0.061369 -0.0626657 0.0312696 0.000116 -7.48401 0.0216667 -10.8887 2650 
19 1 -0.0609476 -0.0587424 0.0314383 0.000423 -3.16614 -1.369 -6.13783 2650 
672 1 -0.060655 -0.054129 0.0315003 0.000656 -3.69436 1.67509 -7.11342 2650 
293 1 -0.0613082 -0.0468755 0.0312914 0.000116 -1.56514 3.37387 -3.78875 2650 
3514 1 -0.0604168 -0.046997 0.0319533 0.000656 0.364501 -0.812126 0.687655 2650 
4068 1 -0.0590552 -0.0615697 0.0333141 0.000423 -2.83345 0.909785 -9.41766 2650 
3385 1 -0.060257 -0.0540596 0.0333784 0.000116 -3.34903 0.482333 -6.0459 2650 
2130 1 -0.0572089 -0.062188 0.0341363 0.000423 -1.32571 0.408066 -6.58377 2650 
2234 1 -0.0594384 -0.0608195 0.0342056 0.000423 -0.291303 -0.0173591 -0.50619 2650 
269 1 -0.0595836 -0.0589896 0.0339528 0.000423 -4.06714 1.60407 -7.13745 2650 
159 1 -0.0588063 -0.0607314 0.0352816 0.000423 -2.75769 0.637761 -4.59647 2650 
4220 1 -0.0589751 -0.0613584 0.0355944 0.000116 -2.46872 0.363597 -4.09033 2650 
1955 1 -0.0534002 -0.0606593 0.0357965 0.000116 -0.219647 0.888681 -0.402673 2650 
3329 1 -0.0577855 -0.0575534 0.0369297 0.000423 -3.22683 1.26843 -5.04912 2650 
3786 1 -0.0566322 -0.0548605 0.039215 0.000116 -2.28412 2.36279 -3.2986 2650 
3137 1 -0.0561295 -0.0588577 0.0399312 0.000116 -2.97374 1.63973 -4.18004 2650 
1447 1 -0.0528621 -0.0462247 0.0436869 0.000423 0.447325 -0.524801 0.541272 2650 
208 1 -0.0486968 -0.0622767 0.0487201 0.000116 -0.972238 0.52468 -0.971773 2650 
744 1 -0.0473323 -0.0555263 0.0500467 0.000116 0.460382 2.40349 0.435413 2650 
333 1 -0.0451494 -0.052353 0.0513101 0.000656 0.871389 -0.365728 0.766762 2650 
1050 1 -0.0466383 -0.0509582 0.0506941 0.000116 -1.59035 -1.6233 -1.46311 2650 
1514 1 -0.0392375 -0.0617548 0.052177 0.000116 -3.98911 0.803332 -5.60283 2650 
753 1 -0.0438725 -0.0563905 0.0531058 0.000116 -2.01659 0.56255 -1.66597 2650 
2081 1 -0.0436067 -0.0551917 0.0534197 4.2e-05 -13.275 1.01385 -10.8365 2650 
1177 1 -0.043519 -0.0518374 0.0533959 0.000116 -5.21854 0.146894 -4.25324 2650 
1558 1 -0.0421653 -0.0475528 0.0540836 0.000423 0.343525 1.15727 0.267823 2650 
1716 1 -0.0407253 -0.0502358 0.0555561 0.000116 -4.80234 0.99677 -3.52035 2650 
4334 1 -0.039924 -0.0596366 0.0561346 0.000116 1.85934 -2.0357 1.3224 2650 
3399 1 -0.0386507 -0.0573194 0.0571081 4.2e-05 -6.60735 -1.22269 -4.47184 2650 
3093 1 -0.0381533 -0.0477487 0.0569848 0.000423 0.325722 -1.27103 0.218082 2650 
2098 1 -0.0330897 -0.0501782 0.0598019 0.000656 0.569393 -0.242259 0.315058 2650 
2274 1 -0.0309764 -0.0555199 0.0615263 0.000116 -1.30102 0.379777 -0.655021 2650 
114 1 -0.029868 -0.0481379 0.0614744 0.000656 0.267513 -0.589678 0.129974 2650 
1602 1 -0.0238935 -0.0548705 0.0646075 0.000116 -6.08783 0.676712 -2.25143 2650 
4098 1 -0.0230872 -0.0539468 0.064575 0.000423 0.798065 -0.039367 0.285328 2650 
715 1 -0.0215691 -0.0623296 0.0648639 0.000423 -2.5338 0.404235 -1.20686 2650 
3000 1 -0.0206867 -0.0592932 0.0653836 0.000423 -2.34936 0.142781 -0.743313 2650 
814 1 -0.0202525 -0.053857 0.0655195 0.000423 -4.49917 0.694009 -1.39073 2650 
455 1 -0.0208932 -0.0509704 0.0653178 0.000423 -0.47138 0.0659116 -0.150785 2650 
2819 1 -0.0193053 -0.0510729 0.0654507 0.000116 1.02987 -0.144139 0.0551857 2650 
1052 1 -0.0196899 -0.0622279 0.0660101 0.000116 -6.75596 -1.16853 -2.01522 2650 
1509 1 -0.0192518 -0.0614783 0.0661392 0.000116 -6.35567 0.605228 -1.85 2650 
615 1 -0.0179161 -0.0547794 0.0665134 0.000116 -5.11839 0.228524 -1.37869 2650 
4128 1 -0.012631 -0.0498803 0.0677162 0.000116 -2.15397 -1.22693 -0.401775 2650 
2103 1 -0.00381874 -0.0615188 0.0684732 0.000423 -11.9531 0.234856 -0.44406 2650 
2251 1 -0.00538083 -0.0565735 0.0683666 0.000423 -0.419895 -1.15727 -0.0330481 2650 
939 1 -0.00579263 -0.0547763 0.0686401 0.000116 -1.12647 -0.077501 -0.0950641 2650 
630 1 -0.00667984 -0.050647 0.0685595 0.000116 0.0535994 -0.594053 0.00522226 2650 
3090 1 -0.00394999 -0.0498404 0.0684642 0.000423 0.837146 0.0696672 0.0482984 2650 
4038 1 -0.00041335 -0.0469722 0.0688829 0.000116 -0.487714 -1.51535 -0.00292666 2650 
4254 1 -0.00414127 -0.0306653 -0.0686899 0.000116 -0.963652 -0.701729 -0.391747 2650 
2817 1 -0.00227118 -0.00439058 -0.0688467 0.000116 -2.45119 -0.016198 0.0808621 2650 
2710 1 -0.000855264 -0.00140713 -0.0688788 0.000116 -2.21371 -0.111025 0.0274874 2650 
2672 1 -0.00611086 -0.0436972 -0.0683053 0.000423 3.53176 0.75449 -0.315965 2650 
250 1 -0.00792501 -0.0432857 -0.0681186 0.000423 -0.536727 -0.427986 0.0624436 2650 
1404 1 -0.00672455 -0.0416257 -0.0685551 0.000116 -0.813825 0.969625 0.0798279 2650 
1343 1 -0.00325284 -0.0304868 -0.0685008 0.000423 -0.270267 -0.371509 0.0128366 2650 
2857 1 -0.00643916 -0.0240451 -0.0680421 0.000656 -0.463492 -0.159605 0.0438626 2650 
1493 1 -0.00703328 -0.0232273 -0.0685241 0.000116 0.987233 0.687288 -0.101329 2650 
821 1 -0.00684361 -0.0223657 -0.0682357 0.000423 -0.426338 -0.0853256 0.042759 2650 
2982 1 -0.00537531 -0.0175223 -0.068367 0.000423 -0.798323 -0.0846052 0.0627676 2650 
132 1 -0.00405108 -0.0168641 -0.0684583 0.000423 -0.767847 -0.0846339 0.0454381 2650 
2576 1 -0.00459651 -0.0156329 -0.0684238 0.000423 -0.494098 0.120909 0.033192 2650 
3328 1 -0.00466895 -0.0140757 -0.0684189 0.000423 -0.386056 0.288538 0.0263447 2650 
1960 1 -0.00833255 -0.00975197 -0.0683783 0.000116 -2.39546 0.244527 0.29191 2650 
2818 1 -0.00986334 -0.0029212 -0.0681743 0.000116 -1.72323 0.0409462 0.249313 2650 
1060 1 -0.0108679 -0.00185528 -0.0680214 0.000116 -1.62594 -0.259762 0.259779 2650 
791 1 -0.0026372 -0.00104212 -0.0685273 0.000423 -1.50022 -0.0647742 0.0577342 2650 
4286 1 -0.00944087 -0.000422981 -0.0679251 0.000423 -1.69694 5.35475e-08 0.235857 2650 
2376 1 -0.0152254 -0.0337929 -0.0671804 0.000116 1.90031 -0.712901 -0.430673 2650 
893 1 -0.0105365 -0.031252 -0.0677638 0.000423 -0.954146 -0.053664 0.148359 2650 
2329 1 -0.0115972 -0.0288225 -0.0675903 0.000423 -1.02667 -0.0545035 0.176156 2650 
4058 1 -0.0107409 -0.0279536 -0.0674969 0.000656 -0.74106 -0.202104 0.117927 2650 
1500 1 -0.015404 -0.00915815 -0.0671397 0.000116 -1.17288 -0.384915 0.269098 2650 
3480 1 -0.0153499 -0.00675348 -0.0671521 0.000116 -3.12768 -0.155449 0.714937 2650 
2545 1 -0.0125066 -0.00506699 -0.067428 0.000423 -2.01839 -0.100988 0.374373 2650 
3652 1 -0.0116255 -0.00508171 -0.0675855 0.000423 -1.9982 -0.027283 0.343714 2650 
2414 1 -0.0172568 -0.0376482 -0.0667321 4.2e-05 -3.67132 -2.83231 0.525119 2650 
2169 1 -0.0170252 -0.030964 -0.066747 0.000116 0.541074 0.283676 -0.138012 2650 
4250 1 -0.01736 -0.027119 -0.0666607 0.000116 0.990452 -0.564168 -0.257937 2650 
3443 1 -0.0149668 -0.0170883 -0.0669249 0.000423 -1.70206 -0.402777 0.380642 2650 
3717 1 -0.0186123 -0.0110246 -0.066322 0.000116 -2.3931 0.437465 0.671588 2650 
3356 1 -0.0179649 -0.0105714 -0.0665003 0.000116 -1.80775 -0.0742696 0.488359 2650 
1798 1 -0.0164176 -0.00620287 -0.0665839 0.000423 -1.86538 -0.212246 0.459949 2650 
2788 1 -0.0172621 -0.00244557 -0.06637 0.000423 -1.86206 -0.0457965 0.484301 2650 
2490 1 -0.0169068 -0.00191548 -0.0667771 0.000116 -2.71222 0.292904 0.686685 2650 
3024 1 -0.016587 -0.00110115 -0.0668573 0.000116 -1.85404 0.0948964 0.459979 2650 
2862 1 -0.0166599 -0.0357898 -0.0662846 0.000656 -1.46185 -0.207407 0.367421 2650 
2667 1 -0.0184497 -0.0118835 -0.0660497 0.000423 -1.85597 -0.126567 0.518429 2650 
2224 1 -0.0177687 -0.0124675 -0.0662361 0.000423 -1.80288 -0.0985451 0.483647 2650 
1995 1 -0.0180807 -0.00893769 -0.0661516 0.000423 -1.94003 0.138973 0.530253 2650 
4108 1 -0.0178903 -0.00748525 -0.0662034 0.000423 -1.27775 0.00782864 0.34529 2650 
3926 1 -0.0194864 -0.00622085 -0.0660704 0.000116 -1.2414 -1.15541 0.366131 2650 
588 1 -0.0204397 -0.0351852 -0.0654612 0.000423 -1.15346 -0.512948 0.360159 2650 
4062 1 -0.0210344 -0.0295342 -0.0650289 0.000656 -1.544 -0.201675 0.499427 2650 
3605 1 -0.0233969 -0.0230064 -0.0647889 0.000116 -1.53139 0.0750086 0.553023 2650 
4372 1 -0.0237224 -0.0141991 -0.0647492 4.2e-05 -1.41048 0.223022 0.516764 2650 
2476 1 -0.0230587 -0.0114282 -0.0649101 0.000116 2.56647 2.53394 -0.911717 2650 
1683 1 -0.0212567 -0.0114565 -0.0652005 0.000423 -2.24414 0.201751 0.731635 2650 
811 1 -0.0215499 -0.000435132 -0.0651042 0.000423 -1.82083 0.00437939 0.602707 2650 
2717 1 -0.0252636 -0.0337455 -0.0640841 0.000116 1.84254 -1.21607 -0.726379 2650 
3095 1 -0.0246618 -0.0149524 -0.0639902 0.000423 -1.27887 0.220227 0.492877 2650 
3282 1 -0.0243404 -0.0113799 -0.0645194 4.2e-05 -1.60128 -0.137183 0.604096 2650 
115 1 -0.0223114 -0.00954759 -0.0646019 0.000656 -1.99604 -0.147851 0.689368 2650 
3864 1 -0.0229533 -0.00413455 -0.0646227 0.000423 -1.97795 -0.0480113 0.702546 2650 
358 1 -0.0263081 -0.018115 -0.0633311 0.000423 -0.738754 -0.384999 0.306883 2650 
1990 1 -0.0249613 -0.0171128 -0.0636249 0.000656 -1.53601 -0.12325 0.602609 2650 
2736 1 -0.0258768 -0.0026096 -0.063839 0.000116 -1.914 0.374449 0.775829 2650 
2967 1 -0.0277643 -0.0122604 -0.0624528 0.000656 -1.79854 -0.0151441 0.799569 2650 
688 1 -0.0282437 -0.00146831 -0.0624919 0.000423 -1.83894 -0.0805922 0.831123 2650 
4011 1 -0.0303743 -0.0110724 -0.0618257 0.000116 -1.40277 -0.174569 0.689168 2650 
3743 1 -0.0288697 -0.0108169 -0.0622052 0.000423 -1.79659 0.0645227 0.833805 2650 
4226 1 -0.0313554 -0.0226975 -0.0612682 0.000116 -1.25674 -0.727914 0.210887 2650 
2714 1 -0.0319381 -0.0128309 -0.0610326 0.000116 -2.05446 0.101578 1.07509 2650 
1718 1 -0.0316178 -0.0111855 -0.0611991 0.000116 -1.56431 -0.926583 0.808184 2650 
2248 1 -0.0308058 -0.00819179 -0.0612695 0.000423 -1.09912 0.0095921 0.552629 2650 
1813 1 -0.0312294 -0.00676805 -0.0610547 0.000423 -1.23021 0.131712 0.62925 2650 
3011 1 -0.00220855 -0.00648211 -0.0608546 0.000423 -0.358223 -0.272353 -9.20336 2650 
1852 1 -0.0321054 -0.00382235 -0.0609448 0.000116 -1.35096 -0.23678 0.711676 2650 
1341 1 -0.0326906 -0.0410584 -0.0602852 0.000423 4.2266 -0.0129604 -2.26667 2650 
71 1 -0.0335199 -0.0383799 -0.0601784 0.000116 6.04238 0.512527 -3.36566 2650 
1185 1 -0.0330866 -0.0329979 -0.0604177 0.000116 -0.165185 -0.423339 0.0904602 2650 
1372 1 -0.0319869 -0.00470764 -0.0606612 0.000423 -1.23541 0.37891 0.651437 2650 
4312 1 -0.0327265 -0.000878776 -0.0602655 0.000423 -1.9884 -0.0479121 1.07978 2650 
122 1 -0.0329985 -0.0374531 -0.0598523 0.000656 -1.63917 -0.453387 0.903729 2650 
2327 1 -0.0333742 -0.0204679 -0.0599085 0.000423 1.02878 -0.0820722 -0.530677 2650 
1045 1 -0.033487 -0.0157503 -0.0598462 0.000423 -1.03833 -0.165706 0.580997 2650 
2336 1 -0.0342253 -0.0123939 -0.0594271 0.000423 -1.50897 0.0873807 0.869048 2650 
1901 1 -0.0336262 -0.0116044 -0.0597681 0.000423 -2.03174 0.130884 1.14308 2650 
4044 1 -0.0372856 -0.00568078 -0.0579207 0.000116 -1.75337 -0.221969 1.12871 2650 
2259 1 -0.0373194 -0.00490368 -0.0578989 0.000116 -1.80972 -0.055864 1.16647 2650 
3284 1 -0.0371451 -0.00508614 -0.0580987 4.2e-05 -1.24854 -0.121377 0.79825 2650 
2928 1 -0.037323 -0.00317607 -0.0578966 0.000116 -1.63593 -0.0732728 1.0546 2650 
476 1 -0.037004 -0.0038655 -0.0577378 0.000423 -1.58851 -0.214012 1.01807 2650 
671 1 -0.0359092 -0.00284205 -0.0581526 0.000656 -1.55765 -0.112451 0.961849 2650 
2183 1 -0.0373678 -0.000116028 -0.0578677 0.000116 -1.29959 0.00021534 0.839074 2650 
2000 1 -0.0369652 -0.000458617 -0.0577627 0.000423 -1.32575 -0.026048 0.848213 2650 
3741 1 -0.0378318 -0.0357326 -0.0571988 0.000423 -0.544108 -0.241888 0.359877 2650 
3525 1 -0.0373786 -0.0180907 -0.057496 0.000423 -0.563519 0.190775 0.366348 2650 
15 1 -0.0380084 -0.00739787 -0.0570816 0.000423 -1.34642 -0.168445 0.89653 2650 
2641 1 -0.0373438 -0.00605224 -0.057242 0.000656 -1.73826 -0.130222 1.13402 2650 
1669 1 -0.0375525 -0.00480186 -0.0573826 0.000423 -1.52901 0.0642893 1.00062 2650 
1550 1 -0.0375097 -0.00312648 -0.0571334 0.000656 -1.41417 0.000560489 0.928394 2650 
1213 1 -0.0369123 -0.00192889 -0.0575211 0.000656 -1.51797 0.0684878 0.974108 2650 
3204 1 -0.0381291 -0.000936141 -0.057001 0.000423 -1.57216 0.249102 1.05165 2650 
2680 1 -0.0394136 -0.0330538 -0.0561206 0.000423 -1.09417 0.261594 0.768441 2650 
2349 1 -0.0392874 -0.0246523 -0.056209 0.000423 -0.288488 -0.337196 0.20164 2650 
3269 1 -0.0393091 -0.0153363 -0.056567 0.000116 -0.809699 0.454323 0.56267 2650 
711 1 -0.0391202 -0.0134484 -0.0563255 0.000423 -1.3969 -0.195201 0.970199 2650 
3783 1 -0.0388463 -0.0125538 -0.0565147 0.000423 -1.61477 -0.180347 1.10994 2650 
3959 1 -0.0385144 -0.00329477 -0.0567415 0.000423 -1.50835 0.451684 1.02381 2650 
2177 1 -0.0393426 -0.0029554 -0.0565436 0.000116 -1.54179 0.376536 1.07277 2650 
2132 1 -0.0392343 -0.000509803 -0.0562461 0.000423 -1.70436 -0.00391139 1.18887 2650 
3725 1 -0.0015954 -0.0216302 -0.0559606 4.2e-05 9.2827 -0.607015 2.17503 2650 
575 1 -0.0404804 -0.0144852 -0.055356 0.000423 -1.83062 -0.178543 1.33868 2650 
2664 1 -0.0395417 -0.0125833 -0.0560304 0.000423 -1.60326 -0.173607 1.13145 2650 
1598 1 -0.0405747 -0.000625519 -0.055666 0.000116 -1.58992 0.048094 1.17129 2650 
1675 1 -0.0399625 -0.00068792 -0.0557311 0.000423 -1.71353 0.0649036 1.2287 2650 
3534 1 -0.0406414 -0.0159575 -0.0552379 0.000423 -1.47439 -0.27868 1.08479 2650 
2031 1 -0.0422896 -0.00490661 -0.0539865 0.000423 -1.49916 -0.169216 1.17435 2650 
4159 1 -0.0431329 -0.00836343 -0.0533995 4.2e-05 3.46216 -1.373 -3.06642 2650 
2578 1 -0.0443378 -0.00865199 -0.0523174 0.000423 -1.21897 -0.150055 1.03305 2650 
3656 1 -0.0443547 -0.00473845 -0.0523031 0.000423 -1.37411 -0.0863614 1.16529 2650 
1781 1 -0.0439206 -0.00296845 -0.0526681 0.000423 -1.33588 -0.136044 1.114 2650 
3875 1 -0.0442215 -0.000625731 -0.0524157 0.000423 -1.38338 -0.0240458 1.16711 2650 
2823 1 -0.0457761 -0.0426317 -0.051474 0.000116 -1.46293 -0.917816 1.30099 2650 
3945 1 -0.0453242 -0.0179099 -0.0519705 4.2e-05 -2.67692 -0.107838 2.33458 2650 
2211 1 -0.0447425 -0.00678748 -0.0516653 0.000656 -1.43819 -0.185762 1.24548 2650 
2147 1 -0.0465336 -0.0141788 -0.0507902 0.000116 2.00901 -0.0948649 -1.84064 2650 
670 1 -0.0452541 -0.00159419 -0.0512178 0.000656 -1.12631 0.0643271 0.995166 2650 
3227 1 -0.0462308 -0.000901276 -0.0506524 0.000423 -1.20107 0.00126122 1.09622 2650 
2317 1 -0.0467823 -0.0113639 -0.0498258 0.000656 -1.16707 -0.0502037 1.09578 2650 
427 1 -0.0470252 -0.00533739 -0.0503354 0.000116 -1.4724 0.387671 1.37558 2650 
2732 1 -0.0478434 -0.00835801 -0.0495584 0.000116 -1.46765 0.246962 1.41686 2650 
3936 1 -0.048014 -0.000318448 -0.0494961 4.2e-05 0.300045 0.609504 -0.291061 2650 
3694 1 -0.048675 -0.0296944 -0.0487418 0.000116 1.81985 1.24597 -1.81735 2650 
3920 1 -0.0486293 -0.0152105 -0.0487874 0.000116 -1.14493 -0.263385 1.14122 2650 
3734 1 -0.0482759 -0.00868248 -0.0483801 0.000656 -1.37031 0.137707 1.36736 2650 
3040 1 -0.0493667 -0.0114303 -0.0480412 0.000116 -1.08288 0.214291 1.11276 2650 
1075 1 -0.0500075 -0.00328789 -0.0473737 0.000116 -1.66182 0.209587 1.75421 2650 
1364 1 -0.050062 -0.0188214 -0.0468695 0.000423 -1.27399 -0.123165 1.36077 2650 
2367 1 -0.0500554 -0.0166173 -0.0473231 0.000116 -1.02512 -0.504259 1.0843 2650 
3350 1 -0.0505634 -0.0135715 -0.0467799 0.000116 -1.11799 0.186281 1.20841 2650 
2634 1 -0.0504645 -0.00115519 -0.0469951 4.2e-05 -1.02099 -0.00965988 1.09637 2650 
4320 1 -0.0508396 -0.0428019 -0.0460256 0.000423 -1.08617 -1.07246 1.26327 2650 
2212 1 -0.0505639 -0.0415393 -0.0459836 0.000656 2.47632 -0.014261 -2.72499 2650 
4016 1 -0.0510027 -0.0228987 -0.0463006 0.000116 -0.0649147 -0.510165 0.0715071 2650 
1503 1 -0.0513727 -0.018188 -0.0458897 0.000116 -1.28864 -0.0395204 1.44261 2650 
3527 1 -0.0507713 -0.00887028 -0.0461001 0.000423 -1.06845 -0.101241 1.17671 2650 
2873 1 -0.0505833 -0.00411961 -0.0463064 0.000423 -1.03101 0.187605 1.12624 2650 
355 1 -0.0509823 -0.000422987 -0.0458667 0.000423 -1.05634 3.32945e-08 1.17415 2650 
3904 1 -0.051764 -0.00261799 -0.0454479 0.000116 -1.04995 0.343362 1.19586 2650 
1278 1 -0.052631 -0.0126977 -0.044441 0.000116 -0.524972 -0.648535 0.621719 2650 
3963 1 -0.0522935 -0.00871415 -0.0443659 0.000423 -0.477569 -0.284164 0.562904 2650 
1433 1 -0.0524769 -0.0155289 -0.0437879 0.000656 -1.14273 -0.20439 1.36948 2650 
3817 1 -0.0532454 -0.00382283 -0.043703 0.000116 -0.667812 -0.177938 0.813627 2650 
871 1 -0.0401165 -0.0203691 -0.0432534 4.2e-05 6.29946 -0.227224 -6.11419 2650 
3582 1 -0.0535702 -0.0133717 -0.0433043 0.000116 -0.806726 -0.170759 0.997972 2650 
1408 1 -0.0540467 -0.0091758 -0.0427081 0.000116 -1.40846 0.257249 1.78239 2650 
1046 1 -0.0537551 -0.00104526 -0.0428974 0.000116 0.435259 -0.0927468 0.427472 2650 
691 1 -0.0539006 -0.0238089 -0.042399 0.000423 -0.887348 -0.127833 1.12806 2650 
1172 1 -0.0544907 -0.0190884 -0.0421401 0.000116 -0.98534 -0.259537 1.27413 2650 
4006 1 -0.0543264 -0.00783305 -0.0423517 0.000116 -0.0323349 -0.282006 0.0414773 2650 
3519 1 -0.0534463 -0.002553 -0.0425993 0.000656 -1.0475 0.0137885 1.31422 2650 
1938 1 -0.054934 -0.0200705 -0.0415606 0.000116 0.82019 1.71083 -1.08411 2650 
2118 1 -0.0547575 -0.0182889 -0.0412864 0.000423 -0.983891 -0.149597 1.30492 2650 
1183 1 -0.0550445 -0.0134706 -0.041414 0.000116 -1.01341 -0.272584 1.34695 2650 
528 1 -0.0558829 -0.013245 -0.0402756 0.000116 -0.854416 0.0584026 1.18551 2650 
1753 1 -0.0555745 -0.00355926 -0.040825 4.2e-05 -1.68026 -0.969698 2.28732 2650 
2765 1 -0.0557774 -0.00997845 -0.0398977 0.000423 -0.738672 0.360075 1.03267 2650 
3878 1 -0.0560102 -0.000423798 -0.0395703 0.000423 -0.98059 -0.00443483 1.38798 2650 
2663 1 -0.056328 -0.0197509 -0.0391166 0.000423 -0.969393 -0.222005 1.39593 2650 
2538 1 -0.0563145 -0.0169039 -0.0387283 0.000656 -0.82383 -0.147267 1.19792 2650 
1453 1 -0.0564565 -0.00859297 -0.0389309 0.000423 -0.804687 0.416526 1.16693 2650 
762 1 -0.0567194 -0.00336117 -0.0392188 4.2e-05 -0.42222 1.8766 0.610626 2650 
3375 1 -0.0555561 -0.000551793 -0.039142 0.000116 -0.645191 -0.249323 -0.7454 2650 
1646 1 -0.0575309 -0.00716897 -0.0380184 4.2e-05 0.981052 -1.13939 -1.48457 2650 
3409 1 -0.0567865 -0.00600118 -0.0380328 0.000656 -1.00727 -0.245425 1.50394 2650 
4074 1 -0.0566916 -0.00154869 -0.0385877 0.000423 -1.02715 -0.00803832 1.50905 2650 
429 1 -0.057653 -0.00311532 -0.0376981 0.000116 0.016455 -0.485224 -0.0251651 2650 
1107 1 -0.0574898 -0.0435599 -0.036961 0.000656 0.358526 0.425032 -0.557658 2650 
2790 1 -0.0583172 -0.0375665 -0.036084 0.000423 0.0163014 -0.538733 -0.0263456 2650 
13 1 -0.0584496 -0.000910384 -0.0358692 0.000423 -0.643649 -0.0737077 1.04884 2650 
1606 1 -0.0592045 -0.0203891 -0.0352178 0.000116 4.5013 1.51096 -1.2491 2650 
3479 1 -0.0591719 -0.000722211 -0.0352662 0.000116 -0.544483 0.111626 0.913567 2650 
2112 1 -0.0593741 -0.0445093 -0.0343171 0.000423 -0.0977317 -0.16239 0.169091 2650 
222 1 -0.0592854 -0.0308563 -0.0340066 0.000656 -1.54956 -1.19481 2.70108 2650 
1730 1 -0.0594225 -0.0223345 -0.0343681 0.000116 -1.86864 -0.769596 -0.146437 2650 
2813 1 -0.0597408 -0.018186 -0.0342937 0.000116 -0.958983 0.00224646 1.67058 2650 
1207 1 -0.0606536 -0.0366348 -0.0328077 4.2e-05 0.270699 -0.966532 -0.500459 2650 
2064 1 -0.0599032 -0.0319981 -0.0324539 0.000116 -1.63261 -3.39891 5.80029 2650 
1946 1 -0.0615427 -0.0126238 -0.0309439 0.000116 -1.3727 0.266081 2.7301 2650 
733 1 -0.0615614 -0.0073047 -0.0309035 0.000116 0.23452 -1.25128 -0.435261 2650 
725 1 -0.0615208 -0.0070704 -0.030987 0.000116 -0.642054 0.697804 1.26962 2650 
2247 1 -0.0613273 -0.0298408 -0.0306906 0.000423 -0.162129 0.515935 0.323973 2650 
1325 1 -0.061039 -0.0090141 -0.0307481 0.000656 -0.869997 -0.0103214 1.72705 2650 
1886 1 -0.061554 -0.00801625 -0.0302334 0.000423 -0.82888 0.109293 1.68757 2650 
2018 1 -0.0617662 -0.0397029 -0.0297974 0.000423 0.243245 0.175643 -0.504216 2650 
1510 1 -0.0593043 -0.0358428 -0.0296348 0.000116 -1.90629 -6.83261 -0.315717 2650 
1968 1 -0.0622606 -0.0237282 -0.0293325 0.000116 0.227816 -1.04423 -1.80087 2650 
2560 1 -0.061924 -0.0120242 -0.0294682 0.000423 -0.792915 -0.270821 1.66622 2650 
4217 1 -0.0622007 -0.0327179 -0.0288794 0.000423 -0.571764 -0.100204 1.23147 2650 
3619 1 -0.062818 -0.0315682 -0.0284447 4.2e-05 0.0527624 1.0041 -0.116522 2650 
1462 1 -0.062239 -0.00876357 -0.0287968 0.000423 -0.526019 -0.124612 1.1369 2650 
2139 1 -0.0623292 -0.00309996 -0.0286011 0.000423 -0.576546 -0.00487912 1.25644 2650 
3319 1 -0.0624544 -0.00396901 -0.0283267 0.000423 -0.814156 -0.0353027 1.79504 2650 
822 1 -0.0625187 -0.00203444 -0.0281844 0.000423 -0.545575 -0.0745324 1.2102 2650 
1020 1 -0.0627256 -0.000950644 -0.0277208 0.000423 -0.615414 -0.00640628 1.39254 2650 
1612 1 -0.0631655 -0.0162293 -0.0274798 0.000116 -0.783706 -0.281287 1.80144 2650 
491 1 -0.0630412 -0.000634625 -0.0269956 0.000423 -0.603492 -0.012081 1.4093 2650 
3233 1 -0.0639152 -0.0143469 -0.0248556 0.000423 -0.857444 -0.459718 2.20489 2650 
3636 1 -0.0638172 -0.0123232 -0.025106 0.000423 -0.515909 0.621869 1.31139 2650 
2340 1 -0.0641241 -0.0383688 -0.0243116 0.000423 -0.116989 0.236749 0.30857 2650 
872 1 -0.0646502 -0.0152102 -0.0239812 4.2e-05 -0.596973 -0.3767 2.15544 2650 
3508 1 -0.0644131 -0.0121053 -0.0244406 4.2e-05 -1.83201 -2.14227 4.84767 2650 
3348 1 -0.0649597 -0.0335579 -0.0229185 0.000116 0.701953 -0.645244 -1.9896 2650 
91 1 -0.0649588 -0.01868 -0.0229211 0.000116 -0.739816 -0.0949876 2.09665 2650 
1757 1 -0.0653097 -0.0300925 -0.0221327 4.2e-05 -0.691276 -1.64699 2.03983 2650 
2086 1 -0.0653021 -0.0153842 -0.0221552 4.2e-05 -0.992059 0.0653403 2.92408 2650 
4373 1 -0.066161 -0.0338047 -0.0194405 4.2e-05 -0.254895 -0.352007 0.86747 2650 
2396 1 -0.0661683 -0.00962687 -0.0191516 0.000116 0.103719 -0.586068 -0.358346 2650 
1805 1 -0.0659465 -0.0444795 -0.0188152 0.000423 -0.246429 -0.0652851 0.863722 2650 
1296 1 -0.0667165 -0.0243035 -0.0171446 0.000116 1.40141 -0.445022 -5.45344 2650 
3640 1 -0.066478 -0.021317 -0.0168413 0.000423 0.490525 1.3306 -1.93625 2650 
4297 1 -0.0664254 -0.00176818 -0.0170475 0.000423 -0.360194 -0.0390866 1.40349 2650 
648 1 -0.000405326 -0.00162684 -0.0167969 0.000116 -0.0223048 -0.0463898 -0.00146523 2650 
606 1 -0.000183 0.000746695 -0.016592 0.000116 0 -0.011753 0 2650 
3503 1 -0.0007981 0.00320128 -0.0166043 4.2e-05 -0.0351311 0.0114577 -0.000362163 2650 
93 1 -0.00258762 0.0222753 -0.016609 0.000116 0.0712238 0.0511539 -0.00208758 2650 
999 1 -0.000290089 -0.00016042 -0.01623 0.000656 -0.00317469 -0.0118235 0.0111703 2650 
2301 1 -0.0043929 0.00307024 -0.0158426 4.2e-05 -0.00116259 -0.0070103 0.00459775 2650 
4227 1 -0.000121015 0.0028061 -0.0160835 0.000116 0.00593372 -0.017543 0.0130313 2650 
2013 1 -0.00307132 0.00320261 -0.0157949 0.000423 -0.00154235 0.00221798 0.00156406 2650 
2283 1 -0.00353461 0.00493804 -0.0163429 0.000116 -0.00010552 0.00956354 0.000789399 2650 
3934 1 -0.001977 0.00550869 -0.016218 0.000116 0 -0.011753 0 2650 
2520 1 -5.98275e-05 0.00491551 -0.0162905 4.2e-05 0.00318265 0.000380138 0.00682554 2650 
978 1 -0.00135255 0.0060984 -0.0164975 0.000116 0.0180122 -0.00353228 -0.00159853 2650 
3051 1 -0.00303884 0.00736004 -0.0165165 0.000116 -0.0618207 -0.173783 0.0158451 2650 
2726 1 -0.000595252 0.00944002 -0.0163184 0.000116 0.0026577 0.00672332 0.0197797 2650 
3150 1 -0.00279755 0.00980677 -0.0163766 0.000116 -0.00853688 -0.00507509 0.0147387 2650 
938 1 -0.00157711 0.00995409 -0.0162864 0.000116 -0.00119823 0.000558801 -0.00633771 2650 
1483 1 -0.00050849 0.0108842 -0.0162949 0.000423 -0.000431738 0.0094693 0.00416488 2650 
302 1 -0.00315155 0.0111994 -0.0161116 0.000116 -0.0347922 0.0241041 0.0152166 2650 
3007 1 -0.00323949 0.0119849 -0.0161036 0.000423 -0.00754521 0.0118776 -0.00214285 2650 
371 1 -0.000766549 0.0122988 -0.016456 0.000423 -0.00486135 0.00835155 -0.00501272 2650 
188 1 -0.00375193 0.0144458 -0.0159626 0.000116 -0.0148612 0.0228045 0.00418427 2650 
1785 1 -0.000229206 0.0288205 -0.01615 0.000423 -0.0101949 0.0402746 0.0313912 2650 
1717 1 -0.00386592 0.0337938 -0.0158589 0.000116 0.0090039 0.0753863 0.0163861 2650 
1248 1 -0.00122607 0.0489494 -0.0163331 0.000423 -0.0577688 -0.0532466 0.0165778 2650 
3211 1 -0.00347624 0.0556905 -0.0159659 0.000423 0.104724 -0.0438727 -0.0635138 2650 
1180 1 -0.0670927 -0.0211038 -0.0156075 0.000116 -0.241695 0.188496 1.03898 2650 