ITEM: TIMESTEP
1198578
ITEM: NUMBER OF ATOMS
4382
ITEM: BOX BOUNDS ff ff ff
-0.15 0.15
-0.15 0.06
-0.15 0.15
ITEM: ATOMS id type x y z radius vx vy vz density 
2964 1 -0.0152296 -0.0562855 -0.0672552 4.2e-05 -1.44522 -1.76867 0.327264 2650 
741 1 -0.0329759 -0.060051 -0.0604782 0.000116 -1.04232 0.0432134 0.568329 2650 
1845 1 -0.0341595 -0.0583366 -0.0598176 0.000116 -0.0964833 0.04477 0.0550979 2650 
3143 1 -0.0650685 -0.0604915 -0.0225826 0.000116 -0.489221 0.612775 1.56943 2650 
3810 1 -0.0631264 -0.0534572 0.0275696 0.000116 1.44988 -0.390003 3.31979 2650 
482 1 -0.0289879 -0.0453133 0.0621503 0.000423 2.86424 -1.01286 1.33593 2650 
3444 1 -0.00507554 -0.0422489 -0.0683493 0.000423 -3.39002 -0.684104 0.170738 2650 
3313 1 -0.00592426 -0.0363574 -0.0683217 0.000423 -3.15716 -0.744964 0.273761 2650 
1568 1 -0.00124589 -0.0283185 -0.0685668 0.000423 -2.73265 -0.682996 0.0496535 2650 
4025 1 -0.0123007 -0.00471118 -0.0677769 0.000116 -3.14986 -0.0980843 0.575798 2650 
1687 1 -0.0194107 -0.0207283 -0.0657737 0.000423 -3.00932 -0.400238 0.888092 2650 
3156 1 -0.00271075 -0.0119256 -0.0657811 0.000116 -2.96744 -0.417749 -0.513092 2650 
691 1 -0.00824532 -0.00785162 -0.0656724 0.000423 -2.74122 -0.300234 1.94419 2650 
3329 1 -0.0081738 -0.013103 -0.0652705 0.000423 -3.08518 -0.611733 -0.667727 2650 
3945 1 -0.0269916 -0.00775999 -0.063456 4.2e-05 -2.94512 -0.208944 1.25273 2650 
3718 1 -0.02804 -0.0156221 -0.0629998 4.2e-05 -3.39197 -0.38227 1.5097 2650 
4372 1 -0.0302223 -0.0148319 -0.061725 4.2e-05 -2.62008 -0.530227 1.92182 2650 
1957 1 -0.040603 -0.00514907 -0.0556454 0.000116 -2.58628 -0.114819 1.88714 2650 
4187 1 -0.0429852 -0.0195208 -0.0534343 0.000423 -2.51171 -0.584967 2.02054 2650 
2806 1 -0.0436686 -0.00992306 -0.0532736 0.000116 -2.50599 -0.261695 2.05417 2650 
1818 1 -0.0476021 -0.0049238 -0.0497815 0.000116 -2.10894 -0.104301 2.43696 2650 
2618 1 -0.00363567 -0.00911265 -0.0475092 0.000116 -0.552126 -0.419168 -7.36983 2650 
2224 1 -0.02598 -0.00532038 -0.0453446 0.000423 -4.0099 -0.185429 -6.97351 2650 
3918 1 -0.0510295 -0.0056099 -0.0414596 0.000116 -1.43512 -0.13701 2.76064 2650 
821 1 -0.0567296 -0.00863379 -0.0385319 0.000423 -1.80744 -0.217097 2.66105 2650 
4353 1 -0.057616 -0.0134724 -0.0377548 0.000116 -1.7734 -0.275443 2.70631 2650 
1270 1 -0.0589452 -0.00818728 -0.0356438 0.000116 -1.92869 -0.953706 3.18953 2650 
2317 1 -0.0588305 -0.0293988 -0.0347876 0.000656 -1.53121 -0.61008 2.58948 2650 
734 1 -0.0601565 -0.0182102 -0.0335591 0.000116 -1.56688 -0.424621 2.80872 2650 
3875 1 -0.0596781 -0.00658235 -0.0329498 0.000423 -4.18587 -0.195158 1.05772 2650 
1239 1 -0.0112431 -0.0125438 -0.0285822 0.000423 -1.51939 -1.39399 -3.80937 2650 
3204 1 -0.0546217 -0.00513865 -0.0289326 0.000423 -8.41306 -0.174535 -4.40869 2650 
3422 1 -0.0593908 -0.00350371 -0.0290585 0.000423 -9.33133 0.253659 -4.55695 2650 
3330 1 -0.0626429 -0.0198157 -0.0279073 0.000423 -1.35343 -0.502245 3.03802 2650 
2123 1 -0.0079342 -0.00941268 -0.027255 0.000423 -1.22683 -0.428955 -4.24745 2650 
947 1 -0.0636078 -0.011078 -0.0245348 0.000116 -3.78161 -0.448727 1.64123 2650 
817 1 -0.0627084 -0.00519201 -0.0250472 0.000423 1.46804 -0.122498 3.77669 2650 
1760 1 -0.0600715 -0.0179561 -0.0236999 4.2e-05 4.05622 2.02366 0.587965 2650 
1943 1 -0.00535598 -0.00734488 -0.0239224 0.000116 -0.666642 -0.917444 -2.80521 2650 
4342 1 -0.0237966 -0.00631855 -0.0237038 0.000116 -3.72272 -0.265014 -3.6821 2650 
3266 1 -0.0168887 -0.00521711 -0.0233144 0.000116 -2.49437 -0.216068 -3.43294 2650 
2271 1 -0.045054 -0.00688016 -0.0228125 0.000116 -6.80482 -0.309275 -3.43761 2650 
3547 1 -0.0317821 -0.00495457 -0.0209249 0.000423 -4.76632 -0.175244 -3.15902 2650 
1372 1 -0.0232825 -0.00466227 -0.0199305 0.000423 -3.34218 -0.170231 -2.90013 2650 
152 1 -0.0658165 -0.0184173 -0.0192652 0.000423 -0.898318 -0.399399 3.06895 2650 
2208 1 -0.010023 -0.00517897 -0.017335 0.000656 -1.53691 -0.191152 -2.63927 2650 
606 1 -0.000183 0.00492767 -0.016592 0.000116 0 -0.011753 0 2650 
2713 1 -0.000763 0.0118987 -0.016767 0.000116 0 -0.011753 0 2650 
4116 1 -0.004072 -0.00072933 -0.016193 0.000116 0 -0.011753 0 2650 
93 1 -0.00354 -0.00031833 -0.016299 0.000116 0 -0.011753 0 2650 
1991 1 -0.002768 0.00126067 -0.01599 0.000656 0 -0.011753 0 2650 
736 1 -0.003429 0.00285267 -0.016474 0.000116 0 -0.011753 0 2650 
2013 1 -0.00314841 0.00405169 -0.0160243 0.000423 0.00266818 -0.00871737 -0.00337826 2650 
3789 1 -0.00184088 0.00436088 -0.0159017 0.000116 -0.0185147 0.0392615 -0.0216295 2650 
3546 1 -0.002797 0.00598967 -0.016252 0.000423 0 -0.011753 0 2650 
2301 1 -0.004222 0.00670067 -0.016305 4.2e-05 0 -0.011753 0 2650 
188 1 -0.00068 0.00646967 -0.016516 0.000116 0 -0.011753 0 2650 
615 1 -0.00253582 0.00750462 -0.016368 0.000116 -0.304292 -0.202476 0.0637749 2650 
3616 1 -0.000938 0.00726467 -0.016074 4.2e-05 0 -0.011753 0 2650 
3934 1 -0.001977 0.00968967 -0.016218 0.000116 0 -0.011753 0 2650 
3482 1 -0.0119683 -0.00499925 -0.0155158 0.000116 -1.62 -0.232258 -2.11146 2650 
1312 1 -0.037343 -0.00427251 -0.0156968 4.2e-05 -5.78992 -0.109629 -2.43374 2650 
3441 1 -0.005522 -0.00239533 -0.01502 0.000423 0 -0.011753 0 2650 
3295 1 -0.00249357 -0.00253436 -0.0153629 0.000656 -0.0259609 -0.0460209 -0.0625831 2650 
330 1 -0.001698 -0.00105433 -0.015557 4.2e-05 0 -0.011753 0 2650 
3733 1 -0.00253711 -0.00076698 -0.0154943 0.000656 -0.00903733 0.00595212 -0.0173299 2650 
2965 1 -2.2e-05 -0.00074833 -0.015341 4.2e-05 0 -0.011753 0 2650 
1679 1 -0.00360858 0.00363996 -0.0154322 0.000423 0.00038771 -0.00537817 -0.000606382 2650 
3645 1 -0.00162313 0.00359852 -0.0155556 0.000423 -0.016092 0.00258107 0.0270932 2650 
4165 1 -0.00564702 0.00515769 -0.0150774 0.000656 0.00622358 0.0106794 0.0127596 2650 
3322 1 -0.0045903 0.00552453 -0.0156647 0.000423 -0.0209456 -0.0191109 -0.033031 2650 
2399 1 -0.002418 0.00514167 -0.015541 0.000116 0 -0.011753 0 2650 
4296 1 -0.00157303 0.00569215 -0.0155736 0.000423 -0.000356005 -0.0132873 -0.00240934 2650 
1986 1 -0.00407924 0.00754497 -0.0155655 0.000656 0.00762539 0.0149956 0.0116892 2650 
2969 1 -0.001381 0.00771167 -0.015354 0.000656 0 -0.011753 0 2650 
978 1 -0.005372 0.00838767 -0.015286 0.000116 0 -0.011753 0 2650 
2701 1 -0.0032623 0.00925845 -0.0151149 0.000116 0.0331549 0.247236 -0.00676049 2650 
86 1 -0.002064 0.0109457 -0.015055 0.000116 0 -0.011753 0 2650 
3177 1 -0.001068 0.0107457 -0.015412 4.2e-05 0 -0.011753 0 2650 
3830 1 -0.006879 0.0112417 -0.015411 4.2e-05 0 -0.011753 0 2650 
728 1 -0.00400056 0.0112607 -0.0155539 0.000116 -0.0650853 0.147179 0.0609561 2650 
884 1 -0.00501346 0.0124663 -0.0151817 0.000656 -0.0291238 0.0251675 0.0345608 2650 
938 1 -0.000869 0.0121517 -0.015416 0.000116 0 -0.011753 0 2650 
3632 1 -0.006134 0.0128677 -0.015144 0.000423 0 -0.011753 0 2650 
1357 1 -0.0046217 0.0146118 -0.0157792 0.000423 -0.0662446 0.165624 0.033916 2650 
2256 1 -0.001753 -0.00294433 -0.014775 0.000116 0 -0.011753 0 2650 
747 1 -0.001416 -0.00292433 -0.014317 0.000116 0 -0.011753 0 2650 
3303 1 -0.00682366 -0.00169433 -0.014659 0.000656 -0.0119966 -0.0726635 -0.0251966 2650 
3502 1 -0.001236 -0.00194933 -0.014816 4.2e-05 0 -0.011753 0 2650 
1640 1 -0.001358 -0.00061633 -0.014495 4.2e-05 0 -0.011753 0 2650 
2313 1 -0.005044 0.00022767 -0.014923 0.000656 0 -0.011753 0 2650 
2413 1 -0.003433 6.56698e-05 -0.014868 4.2e-05 0 -0.011753 0 2650 
1053 1 -0.007469 0.00129967 -0.014946 0.000116 0 -0.011753 0 2650 
3239 1 -0.002155 0.00150967 -0.014442 0.000116 0 -0.011753 0 2650 
2332 1 -0.003268 0.00159067 -0.014853 0.000423 0 -0.011753 0 2650 
1569 1 -0.0020311 0.00387087 -0.0145287 0.000423 -0.0214881 0.00570095 0.0411068 2650 
1219 1 -0.00423331 0.00458877 -0.0145521 0.000656 0.035204 0.0225104 -0.0281999 2650 
220 1 -0.003649 0.00420467 -0.014897 4.2e-05 0 -0.011753 0 2650 
3147 1 -0.0018461 0.00469195 -0.0149039 0.000116 -0.00706837 0.0221131 0.0132401 2650 
104 1 -0.00218 0.00445367 -0.014554 4.2e-05 0 -0.011753 0 2650 
3121 1 -0.0073951 0.00508042 -0.0146823 0.000423 0.0183884 -0.00063976 -0.0298352 2650 
3564 1 -0.000147 0.00693067 -0.014738 0.000423 0 -0.011753 0 2650 
2438 1 -0.005612 0.00750267 -0.014612 0.000423 0 -0.011753 0 2650 
3365 1 -0.002315 0.00756767 -0.014552 0.000116 0 -0.011753 0 2650 
713 1 -0.00466759 0.00866958 -0.0142496 0.000423 -0.0205718 -0.00213651 0.0254432 2650 
4190 1 -0.007319 0.00923767 -0.014559 0.000423 0 -0.011753 0 2650 
171 1 -0.00219146 0.00928728 -0.0149264 0.000116 -0.0348781 -0.0493867 -0.266281 2650 
3515 1 -0.00493766 0.00958936 -0.0148229 0.000656 -0.0258541 -0.014476 -0.00535425 2650 
1974 1 -0.00266095 0.0100958 -0.0146086 4.2e-05 -0.122631 0.0919633 -0.222648 2650 
3106 1 -0.00223197 0.0097058 -0.0142421 0.000423 -0.0614671 0.0102652 -0.236691 2650 
2250 1 -0.00443263 0.0108274 -0.0145142 0.000423 -0.0796097 0.0756391 0.0421091 2650 
1228 1 -0.001302 0.0110227 -0.014946 0.000423 0 -0.011753 0 2650 
371 1 -0.000513745 0.0108952 -0.0143111 0.000423 -0.000508818 -0.00613125 -0.00679769 2650 
3385 1 -0.00026584 -0.00378416 -0.0137818 0.000116 0.17497 -0.183523 -0.917428 2650 
3229 1 -0.006614 -0.00282633 -0.01374 0.000423 0 -0.011753 0 2650 
3622 1 -0.00544491 -0.00264013 -0.0136358 0.000656 0.00467838 -0.0472728 -0.0117267 2650 
327 1 -0.003849 -0.00270633 -0.013874 4.2e-05 0 -0.011753 0 2650 
2705 1 -0.001432 -0.00288733 -0.013674 0.000116 0 -0.011753 0 2650 
1393 1 -0.009523 -0.00159933 -0.013534 0.000116 0 -0.011753 0 2650 
2939 1 -0.008405 -0.00190333 -0.013483 0.000116 0 -0.011753 0 2650 
2783 1 -0.003328 -0.00056433 -0.013758 0.000423 0 -0.011753 0 2650 
4126 1 -0.001667 -0.00049133 -0.013741 0.000116 0 -0.011753 0 2650 
3778 1 -0.003893 0.00095267 -0.013816 0.000423 0 -0.011753 0 2650 
1620 1 -0.008456 0.00297167 -0.013856 0.000116 0 -0.011753 0 2650 
2547 1 -0.00777108 0.00450309 -0.0140505 0.000423 -0.0464443 0.0392874 0.0525081 2650 
1059 1 -0.00672336 0.00436989 -0.0138067 0.000116 -0.00683586 -0.0187509 0.0600761 2650 
3587 1 -0.006279 0.00422867 -0.013694 0.000116 0 -0.011753 0 2650 
2823 1 -0.00762738 0.00501969 -0.01416 0.000116 0.633901 -0.5158 0.627593 2650 
2485 1 -0.00658899 0.00488695 -0.0137517 0.000116 0.00399842 0.0209962 0.0466364 2650 
2322 1 -0.00701979 0.00829343 -0.0134476 0.000656 -0.00732336 -0.00366906 -0.00588437 2650 
1288 1 -0.002467 0.00887067 -0.014044 0.000116 0 -0.011753 0 2650 
2222 1 -0.000169 0.00949967 -0.014111 0.000423 0 -0.011753 0 2650 
581 1 -0.005568 0.0103917 -0.014167 0.000423 0 -0.011753 0 2650 
1476 1 -0.006941 0.0116707 -0.013435 0.000423 0 -0.011753 0 2650 
2596 1 -0.000945073 0.01135 -0.0137827 0.000116 -0.0696583 -0.0414928 -0.0233005 2650 
3669 1 -0.000592687 0.0117851 -0.0140755 0.000423 0.00220454 -0.00743356 -0.00383523 2650 
1409 1 -0.00044 0.0126507 -0.013868 0.000116 0 -0.011753 0 2650 
1990 1 -0.00915477 -0.00616884 -0.0129542 0.000656 -1.41649 -0.259344 -1.97815 2650 
3409 1 -0.0111945 -0.0044416 -0.0130668 0.000656 -0.589886 -0.866205 -0.905436 2650 
428 1 -0.00922 -0.00285733 -0.013206 0.000116 0 -0.011753 0 2650 
3015 1 -0.008364 -0.00291233 -0.013043 0.000423 0 -0.011753 0 2650 
827 1 -0.005975 -0.00303033 -0.013005 0.000116 0 -0.011753 0 2650 
167 1 -0.004273 -0.00287233 -0.012826 0.000116 0 -0.011753 0 2650 
1487 1 -0.004643 -0.00246333 -0.013241 0.000116 0 -0.011753 0 2650 
2732 1 -0.002992 -0.00293733 -0.013183 0.000116 0 -0.011753 0 2650 
2957 1 -0.0104632 -0.0020567 -0.0126436 4.2e-05 0.0617897 0.274483 -0.25982 2650 
3633 1 -0.00941 -0.00233333 -0.013111 0.000423 0 -0.011753 0 2650 
4056 1 -0.00462406 -0.00115096 -0.0133265 0.000656 0.0589984 -0.0321199 -0.018168 2650 
3551 1 -0.005293 0.00101167 -0.013215 0.000423 0 -0.011753 0 2650 
1125 1 -0.000165 0.00159867 -0.013134 0.000423 0 -0.011753 0 2650 
2525 1 -0.004063 0.00309767 -0.013231 4.2e-05 0 -0.011753 0 2650 
4371 1 -0.000719 0.00240967 -0.012831 0.000116 0 -0.011753 0 2650 
2283 1 -0.000701 0.00272467 -0.012847 0.000116 0 -0.011753 0 2650 
1595 1 -0.007474 0.00375567 -0.012756 0.000423 0 -0.011753 0 2650 
2619 1 -0.005851 0.00391367 -0.012854 0.000116 0 -0.011753 0 2650 
2293 1 -0.00116597 0.00352666 -0.013239 0.000116 0.0416688 0.071753 -0.100968 2650 
1589 1 -0.00919733 0.00415517 -0.0127991 0.000423 -0.0647442 0.0335493 0.0762813 2650 
2609 1 -0.00886 0.00463767 -0.013248 0.000116 0 -0.011753 0 2650 
3880 1 -0.010277 0.00482967 -0.012913 0.000423 0 -0.011753 0 2650 
3917 1 -0.003984 0.00539867 -0.012703 0.000116 0 -0.011753 0 2650 
2194 1 -0.002781 0.00505167 -0.012701 4.2e-05 0 -0.011753 0 2650 
2918 1 -0.00757 0.00598867 -0.012948 0.000116 0 -0.011753 0 2650 
2059 1 -0.003583 0.00560767 -0.012756 0.000116 0 -0.011753 0 2650 
4241 1 -0.000755993 0.0057542 -0.0127362 0.000116 0.0418184 0.0132573 0.0231045 2650 
4078 1 -0.00619084 0.00766637 -0.0129022 0.000423 -0.0196946 -0.00953845 0.00130892 2650 
2777 1 -0.00551982 0.00832796 -0.0126601 0.000423 -0.035076 0.0434508 0.0575263 2650 
1427 1 -0.002948 0.00793867 -0.013376 4.2e-05 0 -0.011753 0 2650 
3259 1 -0.008055 0.00900367 -0.013388 0.000116 0 -0.011753 0 2650 
4318 1 -0.00778159 0.00875127 -0.0127714 0.000423 -0.00589465 -0.00768269 0.00318441 2650 
1795 1 -0.008775 0.00993767 -0.012959 0.000423 0 -0.011753 0 2650 
1769 1 -0.004822 0.00985867 -0.013243 0.000656 0 -0.011753 0 2650 
205 1 -0.000744 0.0106547 -0.01334 0.000116 0 -0.011753 0 2650 
1381 1 -0.00476128 0.0114064 -0.0133204 0.000116 -0.187535 0.0807472 -0.110843 2650 
4314 1 -0.00424907 0.0117659 -0.0129822 0.000423 -0.0907604 0.0399241 0.0421111 2650 
1775 1 -0.008218 0.0133297 -0.012996 0.000423 0 -0.011753 0 2650 
4160 1 -0.006657 0.0130207 -0.013271 4.2e-05 0 -0.011753 0 2650 
3644 1 -0.000733 0.0133257 -0.013392 0.000423 0 -0.011753 0 2650 
1826 1 -0.00094959 0.0200926 -0.0128396 0.000116 0.269854 0.44368 -0.0816137 2650 
3294 1 -0.00653774 0.0303506 -0.0133344 0.000656 -0.0563035 0.49326 0.113749 2650 
3650 1 -0.0019324 -0.00475894 -0.0125709 0.000423 -0.262415 -0.25966 -1.66136 2650 
4068 1 -0.001953 -0.00317133 -0.012327 0.000423 0 -0.011753 0 2650 
2238 1 -0.00687151 -0.00281361 -0.0123453 0.000423 0.00330829 -0.0451229 0.0143354 2650 
868 1 -0.000201 -0.00270333 -0.012301 0.000116 0 -0.011753 0 2650 
3261 1 -0.0104785 -0.00159393 -0.0122395 0.000116 -0.0103871 -0.0646193 0.0251386 2650 
2685 1 -0.00798198 -0.00231283 -0.0124774 0.000423 -0.0443677 -0.0522862 0.0323329 2650 
3200 1 -0.00616362 -0.00233332 -0.0123029 0.000423 0.00613186 -0.04346 0.0113882 2650 
4150 1 -0.001319 -0.00232833 -0.012208 0.000116 0 -0.011753 0 2650 
1924 1 -0.0103337 -0.00108947 -0.0124278 0.000423 0.000254196 -0.0523207 0.0386036 2650 
545 1 -0.002328 -0.00087733 -0.012432 4.2e-05 0 -0.011753 0 2650 
2819 1 -0.007468 -0.00034333 -0.012046 0.000116 0 -0.011753 0 2650 
2468 1 -0.003167 -0.00050433 -0.012131 0.000423 0 -0.011753 0 2650 
1763 1 -0.001143 -0.00021633 -0.012442 0.000656 0 -0.011753 0 2650 
950 1 -0.010031 0.00038867 -0.011866 0.000116 0 -0.011753 0 2650 
1901 1 -0.00374323 0.000216969 -0.0119199 0.000423 -0.0220801 -0.0570589 0.0406976 2650 
3643 1 -0.00460103 0.000930739 -0.0119598 0.000423 -0.0276464 -0.00536394 0.0154079 2650 
3637 1 -0.002026 0.00096267 -0.012108 0.000423 0 -0.011753 0 2650 
623 1 -0.005429 0.00213667 -0.012246 0.000116 0 -0.011753 0 2650 
1422 1 -0.003881 0.00162967 -0.012349 4.2e-05 0 -0.011753 0 2650 
1799 1 -0.003237 0.00244467 -0.012061 0.000423 0 -0.011753 0 2650 
2690 1 -0.000136109 0.00271921 -0.0123221 0.000423 0.0543002 -0.107293 -0.0160682 2650 
3389 1 -0.010415 0.00389567 -0.012026 0.000116 0 -0.011753 0 2650 
3956 1 -0.008956 0.00321567 -0.012273 0.000656 0 -0.011753 0 2650 
856 1 -0.00389 0.00411467 -0.0119 0.000116 0 -0.011753 0 2650 
2253 1 -0.00280095 0.00419597 -0.0125084 0.000423 0.0920831 0.035812 0.016033 2650 
1657 1 -0.00871462 0.00510032 -0.0120559 0.000656 -0.00770092 -0.0112608 -0.00233815 2650 
933 1 -0.0107327 0.00587913 -0.0122932 0.000423 -0.102456 0.0140485 0.124832 2650 
411 1 -0.009436 0.00556367 -0.012079 0.000116 0 -0.011753 0 2650 
3826 1 -0.009208 0.00579067 -0.012552 0.000116 0 -0.011753 0 2650 
3316 1 -0.008979 0.00654367 -0.012376 0.000423 0 -0.011753 0 2650 
1261 1 -0.007462 0.00644767 -0.012403 0.000423 0 -0.011753 0 2650 
3362 1 -0.002672 0.00655667 -0.012199 0.000116 0 -0.011753 0 2650 
3446 1 -0.002592 0.00755067 -0.012627 0.000423 0 -0.011753 0 2650 
1327 1 -0.00962854 0.00826546 -0.0122279 0.000656 -0.0967578 0.0679001 0.109981 2650 
3030 1 -0.001189 0.00805367 -0.012596 0.000116 0 -0.011753 0 2650 
191 1 -0.011348 0.00937467 -0.012254 0.000116 0 -0.011753 0 2650 
70 1 -0.010029 0.00897867 -0.01242 0.000116 0 -0.011753 0 2650 
3847 1 -0.009739 0.00997567 -0.012406 0.000656 0 -0.011753 0 2650 
3173 1 -0.004958 0.0101827 -0.012321 4.2e-05 0 -0.011753 0 2650 
1495 1 -0.004483 0.00952167 -0.012591 0.000116 0 -0.011753 0 2650 
4002 1 -0.000443 0.0102147 -0.01223 0.000116 0 -0.011753 0 2650 
1250 1 -0.007399 0.0107007 -0.012448 0.000423 0 -0.011753 0 2650 
2630 1 -0.001036 0.0103907 -0.012074 4.2e-05 0 -0.011753 0 2650 
65 1 -0.009488 0.0115957 -0.011959 0.000116 0 -0.011753 0 2650 
2109 1 -0.00216075 0.0110586 -0.0124331 0.000423 -0.0263796 0.073224 -0.0180073 2650 
911 1 -0.00702463 0.0125705 -0.0119205 0.000423 -0.0610785 0.041843 0.0219805 2650 
1423 1 -0.00145 0.0118707 -0.012526 4.2e-05 0 -0.011753 0 2650 
1578 1 -0.00792945 0.0126337 -0.0119619 0.000423 -0.0917795 0.00602193 0.00454943 2650 
2483 1 -0.00803624 0.0127705 -0.0124958 0.000116 -0.0200638 7.34443e-05 -0.0363305 2650 
2205 1 -0.00481925 0.0130387 -0.0123438 0.000656 0.000183776 -0.0119531 -0.000657984 2650 
1346 1 -0.00130605 0.0137718 -0.0121152 0.000423 0.0112383 0.146251 0.0960885 2650 
78 1 -0.000240764 0.0561553 -0.0124018 0.000116 -0.560556 -0.579808 -0.507731 2650 
3999 1 -0.005715 -0.00296833 -0.011742 0.000423 0 -0.011753 0 2650 
3679 1 -0.012092 -0.00216633 -0.011604 0.000116 0 -0.011753 0 2650 
704 1 -0.0111214 -0.00189316 -0.011757 0.000423 -0.00773374 0.711749 0.324555 2650 
2072 1 -0.009308 -0.00230433 -0.011721 0.000116 0 -0.011753 0 2650 
123 1 -0.011063 -0.000821896 -0.0113047 0.000423 -0.0212637 -0.0293113 -0.00580498 2650 
2166 1 -0.009005 -0.00079833 -0.011549 0.000116 0 -0.011753 0 2650 
3505 1 -0.006952 -0.00120833 -0.011235 4.2e-05 0 -0.011753 0 2650 
3191 1 -0.00479084 -0.0013821 -0.0115193 0.000656 -0.0442695 0.00235925 -0.00260127 2650 
1022 1 -0.002093 -0.00133833 -0.011454 0.000423 0 -0.011753 0 2650 
249 1 -0.00992868 -0.000502988 -0.0118353 0.000423 -0.0404414 -0.0377152 0.0629853 2650 
2022 1 -0.00520009 -0.000332178 -0.0111904 0.000423 -0.025362 0.0209777 0.00742457 2650 
2827 1 -0.001988 0.00033067 -0.011163 0.000116 0 -0.011753 0 2650 
440 1 -0.00061 9.36698e-05 -0.011485 4.2e-05 0 -0.011753 0 2650 
4215 1 -0.011184 0.00220267 -0.011524 0.000423 0 -0.011753 0 2650 
2579 1 -0.008716 0.00221267 -0.011261 0.000423 0 -0.011753 0 2650 
1452 1 -0.00132709 0.00201863 -0.0112052 0.000423 0.00554637 -0.012591 0.0031522 2650 
2279 1 -0.011345 0.00276567 -0.01145 0.000116 0 -0.011753 0 2650 
3411 1 -0.0101669 0.00257011 -0.0118376 0.000656 0.0172953 0.017912 0.0399518 2650 
3535 1 -9.9e-05 0.00250567 -0.011488 0.000423 0 -0.011753 0 2650 
3223 1 -0.0105157 0.0034426 -0.0112441 0.000423 -0.0120555 0.0292219 0.0276155 2650 
1063 1 -0.009531 0.00381967 -0.011683 0.000116 0 -0.011753 0 2650 
3894 1 -0.005583 0.00326467 -0.011098 0.000116 0 -0.011753 0 2650 
2763 1 -0.000664042 0.00345281 -0.0116084 0.000423 -0.0043689 -0.101149 0.12277 2650 
3380 1 -0.00404133 0.00437347 -0.0116315 0.000116 0.099292 -0.154021 -0.287107 2650 
3383 1 -0.011681 0.00481467 -0.011229 0.000116 0 -0.011753 0 2650 
2294 1 -0.004894 0.00550067 -0.011565 0.000116 0 -0.011753 0 2650 
3542 1 -0.00383442 0.00499451 -0.0112538 0.000423 0.00241856 -0.00915467 -0.000529042 2650 
2471 1 -0.00862064 0.00599837 -0.0111301 0.000423 -0.0907234 0.0202287 0.0449903 2650 
878 1 -0.003908 0.00598367 -0.011202 4.2e-05 0 -0.011753 0 2650 
708 1 -0.00252 0.00569667 -0.011391 0.000423 0 -0.011753 0 2650 
1215 1 -0.00966978 0.00704367 -0.0114499 0.000656 -0.00949184 -0.0199862 0.00772603 2650 
1822 1 -0.008034 0.00655367 -0.011166 0.000116 0 -0.011753 0 2650 
234 1 -0.004437 0.00652667 -0.011677 0.000423 0 -0.011753 0 2650 
1758 1 -0.00201 0.00681467 -0.01144 4.2e-05 0 -0.011753 0 2650 
2409 1 -0.002586 0.00788467 -0.011527 4.2e-05 0 -0.011753 0 2650 
222 1 -0.00129929 0.00718181 -0.0116082 0.000656 -0.00297797 -0.0641339 -0.0320517 2650 
3035 1 -0.0113042 0.00831139 -0.0117109 0.000116 -0.147222 0.0631952 0.172039 2650 
1590 1 -0.00869645 0.00813817 -0.011129 0.000423 0.0232142 0.0391474 0.112449 2650 
4066 1 -0.00634241 0.00838006 -0.0114321 0.000656 -0.00432864 0.007729 0.025362 2650 
4027 1 -0.003218 0.00794567 -0.011075 0.000116 0 -0.011753 0 2650 
2913 1 -0.00348108 0.00856947 -0.0113095 0.000116 -0.028239 -0.0119827 -0.0130286 2650 
2798 1 -0.008755 0.00898467 -0.01131 0.000423 0 -0.011753 0 2650 
1617 1 -0.00424 0.00987367 -0.011492 0.000116 0 -0.011753 0 2650 
3684 1 -0.00483 0.0111557 -0.011273 0.000116 0 -0.011753 0 2650 
1663 1 -0.009704 0.0122687 -0.011499 0.000423 0 -0.011753 0 2650 
3145 1 -0.006381 0.0123367 -0.011273 0.000116 0 -0.011753 0 2650 
2111 1 -0.009632 0.0132557 -0.011343 0.000423 0 -0.011753 0 2650 
1143 1 -0.00183298 0.0129748 -0.0117454 0.000423 0.00744219 0.00969658 -0.00437689 2650 
976 1 -0.005828 0.0137137 -0.011785 0.000116 0 -0.011753 0 2650 
1900 1 -0.00421848 0.0150059 -0.0114501 0.000423 -0.0944124 0.200719 -0.0873639 2650 
1945 1 -0.000471566 0.0188457 -0.0111856 0.000116 0.526814 -1.70469 -1.21494 2650 
3588 1 -0.000250119 0.0230675 -0.0113528 0.000116 0.500572 0.21911 0.239725 2650 
1068 1 -0.0120883 -0.00346652 -0.0104853 0.000116 -0.728186 -0.0722689 -0.639286 2650 
538 1 -0.00203995 -0.00369727 -0.0105394 0.000116 -0.121813 -0.0960864 -1.08147 2650 
4285 1 -0.0109501 -0.00273615 -0.0102703 0.000423 -0.193296 0.0601431 -0.0815947 2650 
2820 1 -0.007052 -0.00294833 -0.010962 0.000116 0 -0.011753 0 2650 
3265 1 -0.006001 -0.00296033 -0.010684 0.000116 0 -0.011753 0 2650 
3603 1 -0.004768 -0.00160433 -0.010424 0.000116 0 -0.011753 0 2650 
4373 1 -0.004239 -0.00194233 -0.010869 4.2e-05 0 -0.011753 0 2650 
3426 1 -0.00099458 -0.00220611 -0.0105802 0.000423 -0.000402393 -0.0123419 -0.000971192 2650 
2848 1 -0.010456 -0.00090733 -0.010698 4.2e-05 0 -0.011753 0 2650 
15 1 -0.001892 -0.00155133 -0.010407 0.000423 0 -0.011753 0 2650 
250 1 -0.0111554 -0.000274913 -0.0103144 0.000423 -0.094958 -0.0322937 0.0593026 2650 
3093 1 -0.002889 -0.00031233 -0.010782 0.000423 0 -0.011753 0 2650 
2130 1 -0.000316 -0.00048733 -0.010491 0.000423 0 -0.011753 0 2650 
3960 1 -0.008634 6.69756e-07 -0.010875 0.000423 0 -0.011753 0 2650 
388 1 -0.008271 0.00059667 -0.010879 0.000116 0 -0.011753 0 2650 
3673 1 -0.00272 0.00054267 -0.010833 0.000423 0 -0.011753 0 2650 
3284 1 -0.001323 0.00056767 -0.010635 4.2e-05 0 -0.011753 0 2650 
1193 1 -4.3e-05 7.86698e-05 -0.010628 0.000116 0 -0.011753 0 2650 
3311 1 -0.0114503 0.000946452 -0.0105266 0.000423 -0.0650439 0.00528558 0.0067638 2650 
2542 1 -0.005905 0.00088167 -0.010347 0.000423 0 -0.011753 0 2650 
3530 1 -0.000573 0.00103767 -0.010526 0.000423 0 -0.011753 0 2650 
1233 1 -0.012882 0.00219667 -0.010287 0.000423 0 -0.011753 0 2650 
1160 1 -0.0103351 0.00169145 -0.0102731 0.000116 -0.0234924 0.0511302 -0.0170349 2650 
4104 1 -0.009745 0.00295567 -0.010868 0.000423 0 -0.011753 0 2650 
124 1 -0.005032 0.00309567 -0.01051 0.000423 0 -0.011753 0 2650 
497 1 -0.00574 0.00319067 -0.010398 0.000116 0 -0.011753 0 2650 
1192 1 -0.004051 0.00341467 -0.010435 0.000116 0 -0.011753 0 2650 
3201 1 -0.00199701 0.00373381 -0.0107818 0.000423 0.0982966 0.0107837 0.0662699 2650 
3235 1 -0.00660826 0.004321 -0.0102655 0.000423 -0.00988696 -0.0212582 0.0528137 2650 
2912 1 -0.006578 0.00535767 -0.010859 0.000116 0 -0.011753 0 2650 
3787 1 -0.006362 0.00579367 -0.010668 0.000116 0 -0.011753 0 2650 
760 1 -0.006943 0.00613067 -0.010573 4.2e-05 0 -0.011753 0 2650 
861 1 -0.006339 0.00630467 -0.010358 0.000116 0 -0.011753 0 2650 
958 1 -0.00163682 0.00627837 -0.0103466 0.000116 -0.112936 0.0629473 -0.172921 2650 
2326 1 -0.011792 0.00704625 -0.0106966 0.000423 0.00434717 -0.0219119 0.00771378 2650 
2500 1 -0.010648 0.00767967 -0.010771 0.000116 0 -0.011753 0 2650 
4166 1 -0.00421421 0.00778845 -0.0105332 0.000656 -0.000473877 -0.0124048 -0.000834416 2650 
2948 1 -0.002008 0.00749667 -0.010384 0.000116 0 -0.011753 0 2650 
3727 1 -0.004412 0.00843467 -0.010287 4.2e-05 0 -0.011753 0 2650 
1935 1 -0.00439883 0.00863043 -0.0106821 0.000116 -0.0496311 0.00727001 0.00060962 2650 
3456 1 -0.00346492 0.00854609 -0.0107407 0.000423 -0.000997028 -0.0111859 -0.00366568 2650 
1010 1 -0.011662 0.00969267 -0.010903 0.000423 0 -0.011753 0 2650 
2097 1 -0.00889 0.0102487 -0.010395 0.000656 0 -0.011753 0 2650 
3132 1 -0.007716 0.00975567 -0.01033 0.000116 0 -0.011753 0 2650 
1376 1 -0.009927 0.0109947 -0.010971 0.000116 0 -0.011753 0 2650 
89 1 -0.003936 0.0103007 -0.010466 0.000116 0 -0.011753 0 2650 
2759 1 -0.011495 0.0112487 -0.010915 0.000656 0 -0.011753 0 2650 
2261 1 -0.007381 0.0113457 -0.010514 0.000116 0 -0.011753 0 2650 
233 1 -0.004974 0.0115817 -0.010958 0.000423 0 -0.011753 0 2650 
4167 1 -0.003538 0.0116887 -0.010916 0.000656 0 -0.011753 0 2650 
2260 1 -0.008542 0.0119667 -0.010892 0.000116 0 -0.011753 0 2650 
1802 1 -0.004638 0.0123417 -0.010282 0.000423 0 -0.011753 0 2650 
499 1 -0.011613 0.0127167 -0.010379 0.000116 0 -0.011753 0 2650 
1754 1 -0.008854 0.0128227 -0.010611 4.2e-05 0 -0.011753 0 2650 
1913 1 -0.008189 0.0129567 -0.010954 0.000423 0 -0.011753 0 2650 
3899 1 -0.004387 0.0128407 -0.010427 0.000116 0 -0.011753 0 2650 
3595 1 -0.007357 0.0135257 -0.010628 0.000116 0 -0.011753 0 2650 
3767 1 -0.006013 0.0134417 -0.010843 0.000423 0 -0.011753 0 2650 
963 1 -0.000669 0.0135047 -0.010387 0.000116 0 -0.011753 0 2650 
3859 1 -0.00369434 0.0149343 -0.0107175 0.000423 0.0625424 0.161989 -0.116581 2650 
4365 1 -0.00453153 0.0168135 -0.0109558 0.000116 -0.0372545 0.279327 0.100572 2650 
66 1 -0.0103467 0.0220468 -0.0106128 0.000116 -0.846998 0.31237 -0.56254 2650 
1026 1 -0.00339999 0.0257792 -0.010911 0.000423 -0.376135 0.353379 -0.383847 2650 
2920 1 -0.0038755 -0.00688984 -0.0099321 0.000116 -0.598136 -0.315905 -1.48439 2650 
1387 1 -0.0114488 -0.00422365 -0.00987062 0.000116 -1.07766 -0.205281 -1.14032 2650 
2846 1 -0.00653497 -0.00334384 -0.0096797 4.2e-05 -0.359123 -0.0259567 -0.531938 2650 
1735 1 -0.00227464 -0.00337547 -0.00969715 0.000116 0.00536009 -0.0639636 -0.40366 2650 
3652 1 -0.0114601 -0.00291082 -0.00959726 0.000423 -0.070246 -0.0596927 0.0366494 2650 
3933 1 -0.006596 -0.00224133 -0.009623 0.000116 0 -0.011753 0 2650 
4306 1 -0.012123 -0.000884169 -0.00990014 0.000423 -0.11234 0.0471428 -0.0463662 2650 
3640 1 -0.00950392 -0.00132249 -0.0102438 0.000423 0.0106565 -0.0526658 0.0459604 2650 
417 1 -0.004944 -0.00087533 -0.009884 0.000116 0 -0.011753 0 2650 
939 1 -0.001916 -0.00118533 -0.009682 0.000116 0 -0.011753 0 2650 
1630 1 -0.00227 -0.00112033 -0.00958 0.000116 0 -0.011753 0 2650 
3460 1 -0.013084 -1.53302e-05 -0.009951 0.000116 0 -0.011753 0 2650 
3196 1 -0.00659415 -0.000572073 -0.0102411 0.000423 0.0418395 0.00921167 -0.158288 2650 
2778 1 -0.01202 0.00024967 -0.00976 0.000423 0 -0.011753 0 2650 
3756 1 -0.0111189 0.00045024 -0.009563 0.000423 -0.117965 0.0102938 0.0627101 2650 
1562 1 -0.002141 0.00064967 -0.010154 0.000423 0 -0.011753 0 2650 
2164 1 -0.012835 0.00151467 -0.009898 0.000116 0 -0.011753 0 2650 
3866 1 -0.0123423 0.00116304 -0.0102592 0.000423 -0.0857982 0.0113055 0.0171818 2650 
1750 1 -0.0116272 0.000894488 -0.0100478 4.2e-05 -0.0339763 -0.0109217 0.0389988 2650 
3264 1 -0.003542 0.00107867 -0.010108 0.000116 0 -0.011753 0 2650 
800 1 -0.00114 0.00136867 -0.009738 0.000423 0 -0.011753 0 2650 
2975 1 -0.011752 0.00212767 -0.009985 0.000656 0 -0.011753 0 2650 
4374 1 -0.008921 0.00226267 -0.009568 4.2e-05 0 -0.011753 0 2650 
3250 1 -0.008233 0.00223567 -0.010036 0.000116 0 -0.011753 0 2650 
3135 1 -0.00038 0.00204467 -0.010152 0.000116 0 -0.011753 0 2650 
3832 1 -0.01255 0.00249667 -0.009616 4.2e-05 0 -0.011753 0 2650 
3324 1 -0.0116702 0.00379896 -0.00964099 0.000423 -0.0148526 -0.0100043 0.0122397 2650 
1977 1 -0.006037 0.00350567 -0.009842 4.2e-05 0 -0.011753 0 2650 
364 1 -0.008943 0.00446567 -0.009746 0.000423 0 -0.011753 0 2650 
1579 1 -0.00111581 0.0040658 -0.0101767 0.000423 -0.091952 -0.0936348 -0.265554 2650 
3790 1 -0.012918 0.00543667 -0.010098 0.000116 0 -0.011753 0 2650 
3031 1 -0.011934 0.00500567 -0.00971 0.000116 0 -0.011753 0 2650 
3116 1 -0.01058 0.00550667 -0.009568 0.000423 0 -0.011753 0 2650 
2474 1 -0.001928 0.00484967 -0.009724 0.000423 0 -0.011753 0 2650 
4256 1 -0.007946 0.00619967 -0.010197 0.000116 0 -0.011753 0 2650 
3364 1 -0.006241 0.00629867 -0.010015 0.000116 0 -0.011753 0 2650 
675 1 -0.0011362 0.0064364 -0.00982305 0.000423 -0.0542955 0.145292 -0.148325 2650 
1310 1 -0.011355 0.00755867 -0.010263 4.2e-05 0 -0.011753 0 2650 
3071 1 -0.009089 0.00836367 -0.009836 4.2e-05 0 -0.011753 0 2650 
2581 1 -0.004751 0.00936067 -0.01 0.000423 0 -0.011753 0 2650 
2344 1 -0.001557 0.0102617 -0.009839 0.000423 0 -0.011753 0 2650 
3361 1 -5.4e-05 0.0105107 -0.010103 0.000116 0 -0.011753 0 2650 
301 1 -0.005514 0.0113997 -0.009906 0.000116 0 -0.011753 0 2650 
4179 1 -0.00491472 0.0118051 -0.00953028 0.000423 -0.0109064 -0.0102857 -0.0510759 2650 
660 1 -0.002925 0.0118407 -0.009723 4.2e-05 0 -0.011753 0 2650 
1827 1 -0.000405 0.0123457 -0.009578 0.000116 0 -0.011753 0 2650 
3784 1 -0.00947596 0.0130387 -0.0102321 0.000116 -0.0748727 0.0872127 -0.0809338 2650 
1087 1 -0.005985 0.0126527 -0.009545 0.000116 0 -0.011753 0 2650 
2781 1 -0.00334719 0.0127332 -0.0100055 0.000423 -0.0117237 -0.0176724 0.00043508 2650 
2722 1 -0.0117493 0.0268462 -0.00961935 0.000116 -0.0715147 0.365051 0.247857 2650 
2851 1 -8.71692e-05 0.0286486 -0.0101514 4.2e-05 -0.430468 0.445734 0.344034 2650 