ITEM: TIMESTEP
10949172
ITEM: NUMBER OF ATOMS
4284
ITEM: BOX BOUNDS ff ff ff
-0.15 0.15
-0.15 0.06
-0.15 0.15
ITEM: ATOMS id type x y z radius vx vy vz density 
872 1 -0.00361435 -0.0485929 -0.0688632 4.2e-05 4.32248 1.10911 -0.226869 2650 
4036 1 -0.00651552 -0.0552371 -0.0685753 0.000116 -1.01138 -0.082498 0.0960944 2650 
3096 1 -0.00808754 -0.0537392 -0.0680995 0.000423 0.254156 -0.868517 -0.0301838 2650 
51 1 -0.0012251 -0.052404 -0.0685671 0.000423 0.394928 0.154612 -0.00705628 2650 
578 1 -0.00295011 -0.0497599 -0.0685146 0.000423 1.75624 -0.0586536 -0.0756205 2650 
2271 1 -0.00720409 -0.0469845 -0.0685064 0.000116 11.0942 3.08804 -1.16667 2650 
3372 1 -0.0134664 -0.0619274 -0.067555 0.000116 7.34908 -2.64724 -1.46496 2650 
1380 1 -0.0131186 -0.0556553 -0.0676234 0.000116 3.37782 -1.10806 -0.655283 2650 
854 1 -0.0140058 -0.0490758 -0.0674453 0.000116 12.7432 1.01693 -2.64627 2650 
1699 1 -0.0156693 -0.0621044 -0.0667639 0.000423 0.268185 -0.12664 -0.0629421 2650 
3265 1 -0.0215239 -0.0532449 -0.065435 0.000116 2.25695 0.879925 -0.74239 2650 
1856 1 -0.0240603 -0.0622281 -0.0644738 0.000116 0.651283 -0.19334 0.245418 2650 
1832 1 -0.0293728 -0.0500626 -0.0623078 0.000116 3.0443 -2.87131 -1.43513 2650 
2418 1 -0.030837 -0.046719 -0.0616789 4.2e-05 -3.36565 0.582023 1.68269 2650 
1943 1 -0.0316129 -0.0588478 -0.0612017 0.000116 3.18341 0.132984 -1.64434 2650 
1961 1 -0.0312494 -0.0615458 -0.0596936 0.000116 4.38513 0.273227 -6.94571 2650 
3966 1 -0.0343234 -0.0605131 -0.0593705 0.000423 -0.590147 0.229271 0.341177 2650 
4305 1 -0.0337484 -0.0483838 -0.0596992 0.000423 -0.289494 0.119284 0.163653 2650 
286 1 -0.0406349 -0.0497241 -0.0556222 0.000116 1.4364 -0.796443 -1.04936 2650 
3143 1 -0.0484294 -0.0555707 -0.0489859 0.000116 1.55337 -0.837021 -1.53572 2650 
4338 1 -0.0483361 -0.048595 -0.0490781 0.000116 10.1947 -0.707688 -10.0406 2650 
1012 1 -0.0486463 -0.0458597 -0.0483372 0.000423 -0.209404 -0.308099 0.210743 2650 
1805 1 -0.0520733 -0.0474373 -0.0446242 0.000423 -0.0358481 0.574033 0.0418322 2650 
1768 1 -0.0531148 -0.0609517 -0.0430118 0.000656 -0.218839 -0.36672 0.270242 2650 
1046 1 -0.0538966 -0.0599086 -0.0428973 0.000116 1.23733 0.585714 -1.5546 2650 
1958 1 -0.0568558 -0.0613567 -0.0388902 0.000116 -0.635844 -0.0711001 0.929577 2650 
3260 1 -0.0576924 -0.0596543 -0.0376378 0.000116 -0.364959 -0.132955 0.55942 2650 
3013 1 -0.0585554 -0.0553106 -0.0356961 0.000423 -0.257891 0.0408069 0.423041 2650 
3812 1 -0.0600994 -0.0452552 -0.0336613 0.000116 -0.599682 -0.249276 1.07068 2650 
3688 1 -0.0612499 -0.0467474 -0.0315195 0.000116 2.3272 6.6467 -4.52231 2650 
1712 1 -0.06385 -0.0454911 -0.0258496 0.000116 0.00939755 0.11231 -0.0232125 2650 
2042 1 -0.064271 -0.0531189 -0.0247842 0.000116 0.618572 0.31696 -1.6041 2650 
3547 1 -0.0648613 -0.0623766 -0.0222746 0.000423 0.145611 0.0674379 -0.132362 2650 
1107 1 -0.0645494 -0.0613597 -0.0224626 0.000656 -0.0733528 -0.0376607 0.213439 2650 
1206 1 -0.0657382 -0.055284 -0.0208254 4.2e-05 1.77017 3.54286 -5.58778 2650 
2037 1 -0.0662388 -0.0591521 -0.0189064 0.000116 2.41118 0.750761 -8.4476 2650 
4306 1 -0.0673239 -0.0621862 -0.0146986 0.000423 1.93413 -1.39212 -8.65122 2650 
1419 1 -0.0673317 -0.0613038 -0.014542 0.000116 -0.34795 -0.436983 1.61106 2650 
319 1 -0.0675362 -0.0549971 -0.0135604 0.000116 1.38621 0.833891 -6.90388 2650 
3549 1 -0.0672255 -0.0520609 -0.0135529 0.000423 0.138548 0.179566 -0.687233 2650 
1231 1 -0.0676835 -0.0605256 -0.0110414 0.000423 0.839456 0.608392 -5.14589 2650 
2123 1 -0.0677522 -0.0594429 -0.0106113 0.000423 0.617494 1.07882 -3.94257 2650 
2165 1 -0.0685912 -0.0556824 -0.00634579 0.000116 0.478691 -1.08219 -5.17414 2650 
2186 1 -0.0687381 -0.0597628 -0.00448273 0.000116 0.0991164 0.0166562 -1.51985 2650 
1833 1 -0.0687968 -0.060513 -0.0034672 0.000116 0.120584 -2.68747 -2.39265 2650 
1407 1 -0.0688841 -0.058846 6.00317e-05 0.000116 -0.00266982 0.863724 -3.06352 2650 
786 1 -0.0685006 -0.059415 0.00325857 0.000423 -0.135782 -0.634331 -2.85437 2650 
2823 1 -0.068743 -0.0461335 0.00440685 0.000116 -0.0501305 2.20326 -0.781993 2650 
2829 1 -0.0686947 -0.0460323 0.0051047 0.000116 0.0319412 -0.203586 0.429838 2650 
1377 1 -0.0684832 -0.0468011 0.00742077 0.000116 -0.186151 -0.441273 -1.71791 2650 
2198 1 -0.0584376 -0.0615403 0.00893547 4.2e-05 3.32479 0.170855 -10.8085 2650 
420 1 -0.0680806 -0.0565868 0.0104908 0.000116 -0.0308653 -0.766262 -0.200301 2650 
1185 1 -0.0680501 -0.0471264 0.0106866 0.000116 -0.579641 1.01823 -3.69106 2650 
4331 1 -0.0679092 -0.0496427 0.0115481 0.000116 -0.519283 0.866342 -3.05368 2650 
2314 1 -0.0671963 -0.0619102 0.0124858 0.000656 -0.614088 -0.578339 -3.28879 2650 
947 1 -0.0677359 -0.0586413 0.0125249 0.000116 -0.317079 0.467014 -1.71479 2650 
577 1 -0.0674251 -0.0553979 0.0125224 0.000423 0.206848 -0.362263 1.11375 2650 
2051 1 -0.0672702 -0.0521316 0.0148238 0.000116 -0.405507 -1.00556 -1.84018 2650 
3505 1 -0.0674603 -0.04967 0.014294 4.2e-05 -0.213643 1.65261 -1.00828 2650 
1865 1 -0.0667531 -0.0508184 0.015046 4.2e-05 -3.97271 1.56544 -7.47742 2650 
3577 1 -0.0655672 -0.0517151 0.0211179 0.000116 -2.52271 -0.4052 -7.83255 2650 
400 1 -0.0617298 -0.0621903 0.0305688 0.000116 -1.53649 -0.562008 -3.10276 2650 
2234 1 -0.0615275 -0.0500685 0.0302871 0.000423 0.0816425 -0.23215 0.165855 2650 
2052 1 -0.0608629 -0.0513512 0.0322604 0.000116 -1.13426 0.502229 -2.13991 2650 
1227 1 -0.057713 -0.051235 0.0370426 0.000423 -0.433052 0.258483 -0.674702 2650 
4068 1 -0.0554578 -0.0456771 0.0403408 0.000423 0.0302663 -0.314132 0.041608 2650 
3640 1 -0.0533561 -0.0506958 0.0430821 0.000423 -0.341604 -1.2658 -0.423068 2650 
4098 1 -0.051091 -0.0518297 0.0457455 0.000423 0.571252 -0.045309 0.638005 2650 
4023 1 -0.050871 -0.0541584 0.0464453 0.000116 -1.08782 -0.647996 -1.19147 2650 
3139 1 -0.0503429 -0.0599689 0.0470173 0.000116 -7.72637 0.133121 -8.27286 2650 
4229 1 -0.0487739 -0.0614344 0.0486428 0.000116 -2.29168 -0.202652 -2.29786 2650 
917 1 -0.0478702 -0.0583695 0.049106 0.000423 -2.80169 0.911252 -2.7312 2650 
4307 1 -0.0471694 -0.0613518 0.0497796 0.000423 -3.04997 -0.835981 -2.89003 2650 
3817 1 -0.0423998 -0.0463278 0.0542888 0.000116 -1.22388 0.943039 -0.955857 2650 
2247 1 -0.0406301 -0.0571674 0.0552463 0.000423 -2.44181 0.687593 -1.79579 2650 
1208 1 -0.0370534 -0.0551361 0.0581572 4.2e-05 -2.5793 -0.0281683 -1.64334 2650 
3090 1 -0.0359266 -0.0532859 0.0584143 0.000423 0.744008 0.0848434 0.457588 2650 
1955 1 -0.0333935 -0.0559072 0.0602486 0.000116 -1.48868 0.0473344 -0.825119 2650 
312 1 -0.0310388 -0.0603959 0.061067 0.000116 -7.25005 0.610149 1.30977 2650 
3747 1 -0.0316156 -0.059865 0.0608556 0.000423 0.786866 -1.1402 0.408791 2650 
1609 1 -0.0318433 -0.0469883 0.0610822 0.000116 -5.29536 -0.524127 -2.76057 2650 
1752 1 -0.0116157 -0.0626346 0.0621515 4.2e-05 -0.164995 -0.665255 -3.25178 2650 
2527 1 -0.0296156 -0.0613902 0.0622746 4.2e-05 -2.17483 0.972711 -1.03427 2650 
2166 1 -0.0297514 -0.0467882 0.0621279 0.000116 -6.27952 1.26505 -3.0071 2650 
3140 1 -0.0305723 -0.0454454 0.0617281 0.000116 -2.49131 0.615989 -1.23388 2650 
3930 1 -0.026188 -0.0508025 0.0637121 0.000116 -15.7781 -0.648438 -6.48539 2650 
3464 1 -0.0205935 -0.056669 0.0657338 0.000116 -3.71477 -1.57961 -1.16379 2650 
201 1 -0.0195559 -0.0565372 0.0660499 0.000116 3.25606 1.48388 0.964044 2650 
78 1 -0.0146992 -0.061183 0.0672975 0.000116 -3.97927 -0.120632 -0.869156 2650 
739 1 -0.0101696 -0.045066 0.0681293 0.000116 2.7131 0.544082 0.404983 2650 
2269 1 -0.00173931 -0.0543736 0.0688622 0.000116 -0.666339 -0.55481 -0.0168303 2650 
3619 1 -0.0036767 -0.00475542 -0.0688599 4.2e-05 -2.01606 -1.83723 0.107645 2650 
1183 1 -0.00117051 -0.000782599 -0.0688742 0.000116 -0.4025 0.0602683 0.00684044 2650 
1550 1 -0.00602333 -0.0196403 -0.0680802 0.000656 -0.526215 0.55087 0.060432 2650 
528 1 -0.00887072 -0.0143278 -0.0683106 0.000116 -1.29961 0.197193 0.168766 2650 
2118 1 -0.000444267 -0.0102095 -0.0685766 0.000423 -1.12626 -0.251172 0.00729639 2650 
2873 1 -0.00443162 -0.00500091 -0.0684347 0.000423 -0.356692 0.0520431 0.0230982 2650 
1020 1 -0.00779306 -0.00137458 -0.0681338 0.000423 -2.37969 0.0771893 0.272186 2650 
981 1 -0.0121978 -0.0196121 -0.0671904 4.2e-05 12.8562 0.129303 -2.3557 2650 
2711 1 -0.0123387 -0.0177268 -0.06777 0.000116 1.48864 -0.364792 -0.271033 2650 
1453 1 -0.0127539 -0.0166491 -0.0673817 0.000423 -1.25957 0.132149 0.238408 2650 
2248 1 -0.0127925 -0.0143736 -0.0673743 0.000423 -0.50087 -0.2859 0.0951015 2650 
2367 1 -0.0136132 -0.00355587 -0.0675256 0.000116 -0.815638 -0.264284 0.164433 2650 
1417 1 -0.0164691 -0.0440128 -0.0668864 0.000116 -0.514742 0.22186 0.126742 2650 
4373 1 -0.0173588 -0.0107464 -0.0667374 4.2e-05 -5.56932 -1.45938 1.44861 2650 
152 1 -0.0168431 -0.00712501 -0.0664775 0.000423 -1.9301 -0.114833 0.48902 2650 
2376 1 -0.0176522 -0.0035018 -0.0665839 0.000116 -2.23768 -0.126756 0.593235 2650 
1886 1 -0.0170939 -0.00236183 -0.0664135 0.000423 -1.53175 -0.255416 0.394251 2650 
2634 1 -0.0175669 -0.000944725 -0.0666829 4.2e-05 0.978443 -0.835144 -0.257761 2650 
4110 1 -0.0175403 -0.038939 -0.066297 0.000423 -1.22818 -0.311088 0.324941 2650 
3743 1 -0.017808 -0.0217281 -0.0662255 0.000423 -0.157747 0.179496 0.042418 2650 
2349 1 -0.0181975 -0.0159049 -0.0661196 0.000423 0.548216 0.229071 -0.150881 2650 
491 1 -0.0175525 -0.000587956 -0.0662937 0.000423 -1.87325 0.0985979 0.495978 2650 
3887 1 -0.0218879 -0.0447049 -0.0649913 0.000423 0.980886 -0.487686 -0.330346 2650 
2790 1 -0.0226163 -0.0331533 -0.0647414 0.000423 -1.36973 -0.0307982 0.47849 2650 
827 1 -0.0226459 -0.0205047 -0.0650353 0.000116 -0.264115 -0.834716 0.184258 2650 
2703 1 -0.0227654 -0.00575506 -0.0650135 0.000116 1.74161 1.37099 -0.609851 2650 
13 1 -0.0205381 -0.00476735 -0.0654304 0.000423 -0.969356 0.226976 0.304274 2650 
2139 1 -0.0216499 -0.0034594 -0.0650709 0.000423 -0.986531 0.339115 0.328232 2650 
1341 1 -0.0246628 -0.0370034 -0.0639898 0.000423 -1.39277 -0.199816 0.536796 2650 
4052 1 -0.0228398 -0.0195721 -0.0647002 4.2e-05 -0.539245 1.70004 0.895856 2650 
322 1 -0.0247172 -0.00274565 -0.064376 4.2e-05 -2.88304 0.46989 1.10695 2650 
2959 1 -0.024845 -0.0016801 -0.0643268 4.2e-05 -2.95504 0.198002 1.14133 2650 
3741 1 -0.0255166 -0.038146 -0.0636542 0.000423 -0.733579 -0.15921 0.294064 2650 
1616 1 -0.0284932 -0.0387856 -0.0627149 0.000116 -0.513324 -0.580587 0.233217 2650 
2310 1 -0.0285918 -0.0339243 -0.0627513 4.2e-05 -1.82995 -1.86592 0.833793 2650 
1278 1 -0.0276095 -0.0179748 -0.0631089 0.000116 0.372302 2.01914 -0.162878 2650 
534 1 -0.0282986 -0.0102419 -0.062803 0.000116 2.88832 3.39364 -1.30145 2650 
1462 1 -0.027262 -0.00834877 -0.0629264 0.000423 -1.1515 0.103747 0.498871 2650 
2091 1 -0.0295167 -0.0341946 -0.0616438 0.000656 -0.549215 -0.28783 0.262979 2650 
2208 1 -0.0294639 -0.00409361 -0.0616692 0.000656 -2.09984 -0.164974 1.00325 2650 
4297 1 -0.0305926 -0.00294985 -0.0613762 0.000423 -2.09353 -0.0705524 1.04351 2650 
4150 1 -0.0319792 -0.00100416 -0.0610111 0.000116 0.228354 -0.172039 -0.119693 2650 
822 1 -0.0312887 -0.00110218 -0.0610243 0.000423 -1.38613 -0.0505563 0.710702 2650 
1132 1 -0.0326516 -0.00610562 -0.0603061 0.000423 -1.42213 0.0644354 0.769986 2650 
3479 1 -0.0334317 -0.00496814 -0.0602275 0.000116 -1.23569 0.207006 0.68592 2650 
4213 1 -0.0318318 -0.000443845 -0.0607428 0.000423 -1.36433 -0.00994503 0.714965 2650 
3673 1 -0.036621 -0.0305795 -0.0579815 0.000423 -2.72042 -1.22025 1.71821 2650 
440 1 -0.0373881 -0.00540396 -0.0579425 4.2e-05 -2.69032 -0.12232 1.73597 2650 
2203 1 -0.0376164 -0.0281832 -0.0570637 0.000656 5.49095 -1.10988 -3.61964 2650 
902 1 -0.0390773 -0.0439045 -0.0563552 0.000423 0.103422 0.301856 -0.0717143 2650 
1239 1 -0.0403989 -0.0373432 -0.0554155 0.000423 -0.579565 -0.267637 0.422513 2650 
3748 1 -0.0397591 -0.0366001 -0.0558763 0.000423 -0.955095 -0.282757 0.679604 2650 
3636 1 -0.039676 -0.0245108 -0.0559354 0.000423 -1.22281 0.286211 0.867364 2650 
1082 1 -0.041194 -0.0393497 -0.0552094 0.000116 -0.5082 -0.863062 0.379189 2650 
394 1 -0.0413363 -0.0370977 -0.055103 0.000116 2.50115 -0.521406 -1.87627 2650 
3582 1 -0.0415518 -0.0208965 -0.0549418 0.000116 -1.29604 0.500413 0.909734 2650 
1047 1 -0.0416391 -0.00411606 -0.0548745 0.000116 -1.25318 -0.239609 0.950925 2650 
2875 1 -0.0411965 -0.000747651 -0.0548251 0.000423 -1.61165 -0.0526801 1.21102 2650 
2765 1 -0.0418931 -0.0322082 -0.0542947 0.000423 0.463483 0.158646 -0.357617 2650 
1224 1 -0.0422701 -0.00161416 -0.0540018 0.000423 -1.62818 0.0795976 1.27446 2650 
3904 1 -0.0429632 -0.000960255 -0.0538441 0.000116 -1.47754 0.16952 1.17896 2650 
2143 1 -0.0432052 -0.039116 -0.0532565 0.000423 -1.05589 -0.271611 0.856606 2650 
3393 1 -0.0297317 -0.0251978 -0.0530609 4.2e-05 0.0766428 -1.45204 -0.573484 2650 
3477 1 -0.043494 -0.00592427 -0.0534162 0.000116 -2.47564 -0.140843 2.01578 2650 
3069 1 -0.0444052 -0.0361363 -0.0527578 4.2e-05 2.59006 -1.93645 -2.18 2650 
2018 1 -0.0437233 -0.035237 -0.052832 0.000423 -1.10568 -0.147323 0.915053 2650 
502 1 -0.0443 -0.0178914 -0.0527497 0.000116 -0.819678 -0.227385 0.688379 2650 
343 1 -0.0436565 -0.000930749 -0.0528873 0.000423 -1.50855 -0.0250464 1.24525 2650 
1008 1 -0.045138 -0.0298978 -0.0516286 0.000423 -0.296946 -0.520311 0.259615 2650 
1945 1 -0.0455473 -0.0156499 -0.0516765 0.000116 -1.37872 0.23962 1.2152 2650 
1180 1 -0.0476235 -0.0293658 -0.0497698 0.000116 4.64247 -1.40781 -4.44226 2650 
3963 1 -0.0469262 -0.00724958 -0.050009 0.000423 2.91027 1.23293 -2.73087 2650 
3431 1 -0.0480086 -0.0341718 -0.0489707 0.000423 -0.837569 0.10329 0.821114 2650 
2112 1 -0.0489426 -0.0295506 -0.0480372 0.000423 -0.39043 -0.357633 0.397789 2650 
2846 1 -0.0493659 -0.0127513 -0.0481478 4.2e-05 -1.65042 -0.572242 1.69218 2650 
3330 1 -0.0495062 -0.00188522 -0.0474561 0.000423 -1.31287 -0.101487 1.36958 2650 
1612 1 -0.0504191 -0.000707348 -0.0469355 0.000116 -0.0881311 -0.0480739 0.0946722 2650 
3196 1 -0.0509114 -0.00581422 -0.0459454 0.000423 -1.41172 -0.187992 1.5643 2650 
365 1 -0.051622 -0.0222481 -0.0451455 0.000423 -0.667412 -0.0713306 0.763156 2650 
4048 1 -0.0525786 -0.0320885 -0.0446173 4.2e-05 7.41429 3.94049 -8.73726 2650 
1640 1 -0.0526991 -0.00924555 -0.0444749 4.2e-05 1.03665 -0.542661 -1.22834 2650 
2340 1 -0.0525481 -0.039156 -0.044064 0.000423 -0.178122 0.310945 0.212417 2650 
1915 1 -0.0533086 -0.0156012 -0.043141 0.000423 -1.15743 -0.127481 1.43022 2650 
733 1 -0.0538542 -0.00470336 -0.0429505 0.000116 -0.969547 0.0203533 1.21568 2650 
3543 1 -0.0538989 -0.032495 -0.0424012 0.000423 -0.596945 -0.422946 0.758816 2650 
3881 1 -0.0541535 -0.028869 -0.0420755 0.000423 -0.633769 -0.246018 0.815696 2650 
3375 1 -0.0551608 -0.0407735 -0.0412602 0.000116 0.668009 2.47405 -0.892781 2650 
2837 1 -0.0548623 -0.0352517 -0.0416552 0.000116 1.00992 -1.47026 -1.33012 2650 
358 1 -0.054495 -0.0305741 -0.0416323 0.000423 1.36328 0.780408 -1.78448 2650 
2714 1 -0.0553369 -0.0169695 -0.0410226 0.000116 5.03992 2.10115 -6.79855 2650 
4006 1 -0.0522785 -0.000373221 -0.0402771 0.000116 1.39107 -0.0581984 -5.0493 2650 
3943 1 -0.0562533 -0.0315733 -0.0398845 4.2e-05 5.88569e-05 -1.43455 -8.3012e-05 2650 
1404 1 -0.0563249 -0.0284199 -0.0396551 0.000116 0.16669 -0.630437 -0.236762 2650 
2100 1 -0.0559846 -0.0443419 -0.0392036 0.000656 -0.77285 -0.34302 1.10367 2650 
3882 1 -0.0307354 -0.00623314 -0.0391347 0.000423 -4.52998 -0.279166 -5.81175 2650 
908 1 -0.0567682 -0.0446229 -0.0384749 0.000423 -0.76811 -0.32722 1.13332 2650 
1528 1 -0.0579184 -0.0154297 -0.0372891 0.000116 -1.1016 -1.17439 1.71103 2650 
3418 1 -0.0578961 -0.0160448 -0.0367558 0.000423 -0.229598 1.36561 0.361653 2650 
1083 1 -0.058764 -0.000966443 -0.0359417 0.000116 -0.677042 -0.0375347 1.10695 2650 
453 1 -0.0582988 -0.000631939 -0.0361138 0.000423 -1.16155 -0.049011 1.8751 2650 
2396 1 -0.0594567 -0.000474643 -0.034784 0.000116 -1.09987 -0.0507321 1.88002 2650 
4187 1 -0.0587317 -0.000423621 -0.0354053 0.000423 -1.12565 0.0252548 1.86727 2650 
2717 1 -0.0597026 -0.0289312 -0.0343602 0.000116 1.99445 -3.12818 -3.46545 2650 
3426 1 -0.0598101 -0.0101372 -0.0335514 0.000423 -0.660978 -0.0475638 1.17829 2650 
1922 1 -0.0596735 -0.00885096 -0.0337938 0.000423 -0.69932 0.0589695 1.23487 2650 
3807 1 -0.0603924 -0.0215292 -0.0331327 0.000116 -0.583128 0.105147 1.06289 2650 
2775 1 -0.0601029 -0.00294239 -0.0330241 0.000423 -0.761302 -0.154321 1.38554 2650 
2212 1 -0.06033 -0.0410085 -0.0321091 0.000656 -0.905599 -0.318537 1.11759 2650 
4308 1 -0.0610939 -0.0289959 -0.0311526 0.000423 -0.848942 -0.0114845 1.66487 2650 
848 1 -0.0613837 -0.00568042 -0.031258 0.000116 -1.45374 -0.129165 2.85482 2650 
1938 1 -0.0617034 -0.0225504 -0.0306221 0.000116 0.0347868 -0.258955 -0.0700952 2650 
2476 1 -0.0621659 -0.0376057 -0.029672 0.000116 0.108768 -0.77171 -0.227879 2650 
1968 1 -0.0581122 -0.000207403 -0.0299407 0.000116 4.52933 -0.161268 -3.77828 2650 
2131 1 -0.0622714 -0.0146832 -0.0287266 0.000423 -0.454411 0.356711 0.98504 2650 
138 1 -0.0626194 -0.027038 -0.0279601 0.000423 -0.804381 -0.00556456 1.80149 2650 
2589 1 -0.0629742 -0.0179736 -0.0279155 0.000116 -1.28734 -0.117295 2.90409 2650 
1558 1 -0.0629868 -0.0303395 -0.0271222 0.000423 -1.26936 -1.27758 2.94788 2650 
3692 1 -0.0635999 -0.0249447 -0.0264589 0.000116 0.339188 -0.781117 -0.815316 2650 
871 1 -0.0638521 -0.0186899 -0.0260406 4.2e-05 0.0425516 0.0575722 -0.104337 2650 
3066 1 -0.0489697 -0.020229 -0.0245901 4.2e-05 4.82592 -0.147264 -6.74383 2650 
1161 1 -0.0642893 -0.00737077 -0.0247369 0.000116 -0.823743 -0.432871 2.14084 2650 
3647 1 -0.0640048 -0.0054852 -0.0246238 0.000423 -0.848814 -0.109996 2.20633 2650 
1136 1 -0.0641367 -0.0385461 -0.0242781 0.000423 -0.435911 -0.272358 1.15157 2650 
1202 1 -0.0500485 -0.0231614 -0.0229739 4.2e-05 5.05202 -0.986462 -5.65408 2650 
1379 1 -0.0647852 -0.0112985 -0.0234074 0.000116 -1.0882 -0.393504 3.01185 2650 
378 1 -0.0646228 -0.000926759 -0.022953 0.000423 -0.542657 0.0479578 1.52782 2650 
2998 1 -0.0648727 -0.0255359 -0.0222369 0.000423 -0.259127 -0.315933 0.755963 2650 
2353 1 -0.0651366 -0.0177128 -0.0214516 0.000423 -0.152842 0.212037 0.464096 2650 
2147 1 -0.0658818 -0.00872362 -0.0201149 0.000116 -0.174772 -0.694656 0.572425 2650 
856 1 -0.0660564 -0.0208877 -0.0195342 0.000116 2.06518 0.127319 -6.98355 2650 
2848 1 -0.0664684 -0.0312077 -0.018362 4.2e-05 0.160217 1.82761 -0.579967 2650 
336 1 -0.0657034 -0.0294912 -0.0188218 0.000656 -0.498785 -0.0215981 1.74117 2650 
379 1 -0.0660101 -0.000813465 -0.0185906 0.000423 -0.459874 0.138134 1.63289 2650 
2515 1 -0.0666304 -0.0127765 -0.0174761 0.000116 -0.583283 -0.370476 2.22386 2650 
2865 1 -0.0662583 -0.0297626 -0.0167643 0.000656 -0.453326 -0.0612761 1.7917 2650 
1563 1 -0.0664697 -0.0112053 -0.0168741 0.000423 -0.570825 -0.33437 2.24856 2650 
3785 1 -0.0667727 -0.00520936 -0.0169243 0.000116 -0.233439 -0.558073 0.921004 2650 
2429 1 -0.0662214 -0.00177994 -0.0169092 0.000656 -0.463263 0.132321 1.81427 2650 
606 1 -0.000183 0.00121536 -0.016592 0.000116 0 -0.011753 0 2650 
4227 1 -0.000357629 0.00350565 -0.0166031 0.000116 0.00593372 -0.017543 0.0130313 2650 
302 1 -0.00174051 0.0102339 -0.0166241 0.000116 -0.0434127 0.0256721 -0.0191129 2650 
1296 1 -0.066889 -0.0133347 -0.0164585 0.000116 -0.481974 -0.0759685 1.95879 2650 
2013 1 -0.00300982 0.00311417 -0.0158573 0.000423 -0.00154235 0.00221798 0.00156406 2650 
2301 1 -0.00434654 0.00334978 -0.0160259 4.2e-05 -0.00116259 -0.0070103 0.00459775 2650 
2283 1 -0.0035304 0.00455668 -0.0163744 0.000116 -0.00010552 0.00956354 0.000789399 2650 
889 1 -0.00126315 0.00461205 -0.0159033 0.000656 0.0221019 0.0158351 0.0220207 2650 
2520 1 -0.000186739 0.00490035 -0.0165627 4.2e-05 0.00318265 0.000380138 0.00682554 2650 
3365 1 -0.00166392 0.00608534 -0.0164981 0.000116 0.015804 0.0241832 0.0212134 2650 
978 1 -0.0020708 0.00623925 -0.0164338 0.000116 0.0180122 -0.00353228 -0.00159853 2650 
3934 1 -0.001977 0.00597736 -0.016218 0.000116 0 -0.011753 0 2650 
2726 1 -0.00054951 0.00912428 -0.0161849 0.000116 -0.00741369 0.00988612 -0.041436 2650 
3150 1 -0.00220703 0.0101035 -0.0158884 0.000116 -0.0182263 -0.0087302 -0.0269448 2650 
938 1 -0.00152933 0.00993181 -0.0160337 0.000116 -0.00119823 0.000558801 -0.00633771 2650 
1483 1 -0.000491274 0.0105066 -0.016461 0.000423 -0.000431738 0.0094693 0.00416488 2650 
3007 1 -0.00293861 0.0115113 -0.0160181 0.000423 -0.00754521 0.0118776 -0.00214285 2650 
371 1 -0.000515779 0.0119519 -0.0162587 0.000423 -0.00963196 0.00951459 -0.00479058 2650 
188 1 -0.00315932 0.0135365 -0.0161295 0.000116 -0.0148612 0.0228045 0.00418427 2650 
2182 1 -0.00151107 0.0139829 -0.0162043 0.000116 0.00266263 0.0360122 0.0211071 2650 
3051 1 -0.00311277 0.0148759 -0.0160596 0.000116 0.163555 -0.227841 -0.0207843 2650 
2713 1 -0.000703072 0.0158909 -0.0159032 0.000116 0.00037122 0.035974 0.00535071 2650 
93 1 -0.00543748 0.0202791 -0.0158507 0.000116 0.0714693 0.0500535 -0.0191255 2650 
1717 1 -0.00400984 0.030831 -0.0160475 0.000116 -0.014717 0.0706098 -0.0348682 2650 
2264 1 -0.000288653 0.0513813 -0.0165293 0.000116 -0.0637592 0.11185 0.0253368 2650 
3337 1 -0.0668075 -0.0156612 -0.0154824 0.000423 -0.353009 -0.375022 1.52325 2650 
4362 1 -0.06708 -0.0147674 -0.0156617 0.000116 -0.381722 -0.141549 1.63494 2650 
4249 1 -0.067183 -0.00872555 -0.0152142 0.000116 -0.40764 -0.159486 1.80006 2650 
30 1 -0.00226004 -0.00233626 -0.0154312 0.000423 -0.0139928 -0.0214008 0.00726417 2650 
3599 1 -0.000251055 -0.00184172 -0.0153152 0.000116 0.0260231 -0.00977207 -0.00117121 2650 
3576 1 -0.000642526 -0.00138671 -0.0154562 0.000116 0.0561059 0.00120064 -0.0311085 2650 
2399 1 -0.002418 0.00142936 -0.015541 0.000116 0 -0.011753 0 2650 
3637 1 -0.00542939 0.00425211 -0.0153072 0.000423 -0.00704251 0.0124689 0.006236 2650 
1611 1 -0.0015287 0.00420179 -0.0152374 0.000116 0.0444256 -0.019621 0.0278665 2650 
1679 1 -0.00429514 0.00502822 -0.015753 0.000423 -0.00453172 0.0157125 0.00260684 2650 
1827 1 -0.00413231 0.00709891 -0.0152379 0.000116 -0.00517626 -0.0457281 -0.00851659 2650 
3830 1 -0.006879 0.00752936 -0.015411 4.2e-05 0 -0.011753 0 2650 
2438 1 -0.00623591 0.00724058 -0.0151541 0.000423 -0.00472103 -0.000373669 -0.00125399 2650 
2313 1 -0.0033252 0.00786589 -0.0152696 0.000656 0.00750763 0.00230554 0.0199624 2650 
2851 1 -0.00599555 0.0121665 -0.0156849 4.2e-05 -0.241757 -0.132402 0.104339 2650 
70 1 -0.00257063 0.0132599 -0.0155512 0.000116 0.0560864 0.0328811 0.00597028 2650 
2793 1 -0.000920049 0.0132324 -0.0151958 0.000423 0.00400332 0.0260717 0.000754087 2650 
3838 1 -0.00518278 0.0141904 -0.0152279 0.000656 0.0059045 0.0308137 -0.0288407 2650 
2466 1 -0.00290193 0.022729 -0.0153491 0.000423 0.0618857 0.0331724 -0.00268308 2650 
2056 1 -0.00738768 0.0354742 -0.0150717 0.000116 -0.764234 0.129459 0.318436 2650 
3483 1 -0.0672577 -0.0119822 -0.0148805 0.000116 -0.515493 -0.182192 2.32995 2650 
1053 1 -0.007469 -0.00241264 -0.014946 0.000116 0 -0.011753 0 2650 
3011 1 -0.000450763 -0.00252287 -0.0148227 0.000423 0.0180353 -0.0317081 -0.0392676 2650 
509 1 -0.00783793 -0.000817058 -0.0142121 0.000116 -0.00480979 -0.0076817 0.0108723 2650 
1924 1 -0.0670335 -0.000593111 -0.0144728 0.000423 -0.431327 -0.00384674 1.99777 2650 
2666 1 -0.00774481 0.00237511 -0.0143672 0.000423 0.0108489 0.0809916 0.0205028 2650 
857 1 -0.00746761 0.00338256 -0.0147894 0.000116 -0.0623021 0.0193526 0.00200378 2650 
3787 1 -0.00684405 0.00397219 -0.0145455 0.000116 -0.0024271 -0.00223267 -0.0195234 2650 
1192 1 -0.00723284 0.00642587 -0.0148125 0.000116 0.00510585 0.0133553 0.012363 2650 
3364 1 -0.00678214 0.00851874 -0.0147092 0.000116 -0.00179506 0.0163753 -0.0232219 2650 
581 1 -0.00559931 0.00810876 -0.0144405 0.000423 0.00044719 0.0010883 0.00185987 2650 
233 1 -0.00329794 0.00872928 -0.0142965 0.000423 0.0114684 -0.00558491 0.0116559 2650 
2774 1 -0.00666309 0.010403 -0.0142713 0.000423 -0.0403569 0.0250138 -0.0137733 2650 
86 1 -0.00501484 0.0109019 -0.0149348 0.000116 -0.0196067 0.0126222 0.000798653 2650 
2969 1 -0.00264552 0.0109587 -0.0148617 0.000656 -0.00667616 0.014076 0.00443217 2650 
2781 1 -0.00575088 0.0112945 -0.0148634 0.000423 0.00977627 0.0105103 0.0120467 2650 
1228 1 -0.00256778 0.0137488 -0.0147178 0.000423 -0.0165339 0.0339414 0.00465399 2650 
2191 1 -0.00230477 0.0134585 -0.0143976 4.2e-05 -0.00764734 0.00298638 -0.00836536 2650 
3644 1 -0.00133331 0.0143329 -0.0147203 0.000423 -0.00424564 0.0328325 0.0133159 2650 
3165 1 -0.00747647 0.0203301 -0.0149637 0.000116 -0.224864 0.134576 0.0947812 2650 
2585 1 -0.00183808 0.0275395 -0.0149832 0.000116 -0.0221426 0.0759057 0.0070692 2650 
4234 1 -0.00480664 0.0339808 -0.0143251 0.000116 0.00512064 0.0508026 0.0366661 2650 
1195 1 -0.0030998 0.0349851 -0.0149468 0.000116 0.0557766 0.0782116 -0.0138054 2650 
456 1 -0.0073759 0.0432082 -0.0148177 0.000423 -0.358705 -0.0134195 0.18275 2650 
4244 1 -0.00331121 -0.00317441 -0.0141709 0.000116 -0.0436806 -0.00994679 0.0125723 2650 
736 1 -0.00861231 -0.00175084 -0.0141793 0.000116 -0.0307431 -0.0170391 0.0144389 2650 
1481 1 -0.0671781 -0.00137109 -0.0137859 0.000423 -0.419486 -0.0398609 2.04414 2650 
1763 1 -0.00395765 -0.000829622 -0.0139148 0.000656 0.0110508 0.03864 0.047043 2650 
1991 1 -0.00843102 0.000176034 -0.0138033 0.000656 -0.0192457 -0.00223252 0.00858771 2650 
2609 1 -0.00845412 0.0011729 -0.0134939 0.000116 -0.00705034 0.0126459 0.00789545 2650 
2473 1 -0.00899084 0.00209503 -0.0135982 0.000423 -0.0442117 0.037927 0.0421781 2650 
2913 1 -0.00953153 0.00311289 -0.0134418 0.000116 -0.0031719 -0.0208365 0.00893463 2650 
763 1 -0.00724691 0.00338164 -0.0137634 4.2e-05 -0.0107376 -0.0192397 -0.014763 2650 
220 1 -0.00330615 0.00368661 -0.0137301 4.2e-05 0.00197382 0.00663681 0.00671825 2650 
1288 1 -0.002467 0.00515836 -0.014044 0.000116 0 -0.011753 0 2650 
3515 1 -0.00852877 0.00639821 -0.0136196 0.000656 -0.00454215 -0.00749919 0.00616721 2650 
1618 1 -0.00948799 0.00761596 -0.0138388 0.000116 0.0059414 0.00192455 -0.00369393 2650 
1769 1 -0.00857438 0.00789484 -0.0136997 0.000656 -0.00763615 -0.00751468 0.00847974 2650 
4368 1 -0.000138407 0.00863915 -0.0141052 0.000116 0.0213285 8.20602e-05 -0.0260591 2650 
4190 1 -0.00926982 0.0094001 -0.0136304 0.000423 -0.00662655 0.00573878 0.00360714 2650 
842 1 -0.00779485 0.00886734 -0.0138741 0.000116 -0.0132472 -0.000581938 -0.0143857 2650 
1409 1 -0.000494085 0.00892669 -0.0138965 0.000116 -0.00338114 -0.0124825 -0.00177889 2650 
793 1 -3.39846e-05 0.00936564 -0.0138106 0.000423 -0.00384688 0.00642406 -0.0108379 2650 
438 1 -0.00861634 0.0110502 -0.0141174 4.2e-05 -0.0751478 0.00530319 -0.080919 2650 
3500 1 -0.0054234 0.0108421 -0.0134866 4.2e-05 -0.0484689 0.00233787 0.0298831 2650 
2453 1 -0.00596956 0.0122287 -0.0140931 0.000423 0.00287214 0.0261989 -0.0126472 2650 
1802 1 -0.00325794 0.0123945 -0.0140203 0.000423 0.00500259 -0.000364755 -0.0111755 2650 
2345 1 -0.00161512 0.013685 -0.0136921 0.000423 -0.0175833 0.0131789 -0.0282092 2650 
128 1 -0.000778767 0.0139014 -0.0138926 0.000423 -0.0122377 0.0336028 -0.0162643 2650 
3145 1 -0.00903015 0.0148238 -0.0141655 0.000116 0.00413084 0.0258652 0.0123186 2650 
3471 1 -0.00745375 0.0146694 -0.0138143 0.000116 0.00654915 0.0415659 -0.0136084 2650 
1839 1 -0.00694747 0.0162955 -0.0136605 0.000116 -0.0676852 0.0211351 0.0188737 2650 
2924 1 -0.00913028 0.0167668 -0.0140935 0.000116 -0.0500795 0.0331408 0.0243033 2650 
3973 1 -0.00739034 0.0436891 -0.0139097 0.000423 -0.19124 0.14765 0.186719 2650 
4010 1 -0.00596778 0.045093 -0.01371 0.000116 0.0373387 0.0604042 0.0259593 2650 
2614 1 -0.00191031 0.0523537 -0.013836 0.000116 -0.0792369 -0.0730102 0.0417576 2650 
1787 1 -0.0672878 -0.00396906 -0.0132401 0.000423 -0.342863 -0.154425 1.74247 2650 
4159 1 -0.0351737 -0.00419323 -0.0132908 4.2e-05 -5.26395 -0.111456 -1.99407 2650 
2010 1 -0.0673683 -0.00312968 -0.0128241 0.000423 -0.324214 -0.0955962 1.70318 2650 
3378 1 -0.0675747 -0.00185573 -0.0133674 0.000116 -0.221928 0.136956 1.12189 2650 
3191 1 -0.00989946 -0.000950567 -0.0126944 0.000656 -0.00910125 -0.0063157 0.00903986 2650 
2355 1 -0.0672583 -0.000435995 -0.0133892 0.000423 -0.378144 -0.0139006 1.89954 2650 
2525 1 -0.004063 -0.000614642 -0.013231 4.2e-05 0 -0.011753 0 2650 
2922 1 -0.00811645 0.00132039 -0.0133155 0.000116 -0.00925852 -0.000802711 0.00675368 2650 
2512 1 -0.00643458 0.00117657 -0.0132912 0.000116 0.018779 -0.0192413 0.00230208 2650 
3316 1 -0.0100779 0.00179318 -0.0129857 0.000423 -0.00552961 -0.00411585 -0.00161779 2650 
3917 1 -0.003984 0.00168636 -0.012703 0.000116 0 -0.011753 0 2650 
2059 1 -0.003583 0.00189536 -0.012756 0.000116 0 -0.011753 0 2650 
4374 1 -0.00951198 0.00290671 -0.0128087 4.2e-05 -0.00342399 0.0134868 -0.018776 2650 
1427 1 -0.002948 0.00422636 -0.013376 4.2e-05 0 -0.011753 0 2650 
3362 1 -0.0026028 0.00466327 -0.0129968 0.000116 0.000350619 -0.00253681 -0.00404217 2650 
2322 1 -0.00928391 0.00508599 -0.0132202 0.000656 -0.00463581 -0.0140818 0.00324309 2650 
4179 1 -0.00815595 0.00505264 -0.0128719 0.000423 -0.000889884 -0.0208242 0.00186897 2650 
1388 1 -0.00744172 0.00556774 -0.0131552 0.000116 -0.039288 0.0021603 0.0169103 2650 
963 1 -0.00677522 0.0068145 -0.0127134 0.000116 0.00350227 -0.00324664 0.0156587 2650 
1204 1 -0.00343636 0.00673871 -0.0128433 4.2e-05 0.0310616 -0.0128877 0.0295818 2650 
1250 1 -0.00942826 0.00720202 -0.013269 0.000423 -0.0126021 -0.0099031 0.00355829 2650 
4257 1 -0.00841035 0.0071478 -0.012753 0.000116 -0.00578911 -0.00907208 0.00958653 2650 
2918 1 -0.00604524 0.00726995 -0.0129078 0.000116 0.0149777 0.0131491 0.0124233 2650 
2483 1 -0.00569258 0.00759226 -0.0133388 0.000116 0.00771374 -0.0189039 -0.0218467 2650 
2912 1 -0.00530162 0.00727059 -0.01305 0.000116 0.00196064 0.0151142 0.00117299 2650 
1241 1 -0.00969016 0.00815736 -0.0128151 0.000423 -0.00486634 -0.0127471 -0.0163098 2650 
3310 1 -0.00578483 0.00790923 -0.0126953 0.000423 -0.0174383 -0.0118405 -0.00571758 2650 