ITEM: TIMESTEP
8357652
ITEM: NUMBER OF ATOMS
4323
ITEM: BOX BOUNDS ff ff ff
-0.15 0.15
-0.15 0.06
-0.15 0.15
ITEM: ATOMS id type x y z radius vx vy vz density 
4132 1 -0.00499897 -0.0520628 -0.0687025 0.000116 0.484311 0.296332 -0.0352397 2650 
1500 1 -0.0151659 -0.0603389 -0.0671939 0.000116 6.13969 0.406946 -1.84629 2650 
1081 1 -0.0163465 -0.0483902 -0.0669165 0.000116 -0.777304 -0.154582 0.189882 2650 
3724 1 -0.0207076 -0.0464758 -0.0657754 4.2e-05 9.14778 -1.27983 -2.87993 2650 
3974 1 -0.024545 -0.0582622 -0.0640351 0.000423 0.571231 -0.023709 -0.218957 2650 
2593 1 -0.0269928 -0.0564671 -0.0633752 0.000116 3.46351 0.271913 -1.47518 2650 
3005 1 -0.0248045 -0.0565709 -0.0639351 0.000423 4.31768 0.53426 -1.6751 2650 
4366 1 -0.0278614 -0.0602721 -0.0629981 0.000116 -0.405409 -0.273659 0.179295 2650 
3348 1 -0.0280453 -0.0536341 -0.0629165 0.000116 -3.72097 0.155936 1.65864 2650 
2820 1 -0.0322363 -0.0597578 -0.0608756 0.000116 1.86597 0.581653 -0.988114 2650 
2954 1 -0.0330398 -0.0497695 -0.0604434 0.000116 10.2366 -0.00403746 -5.59559 2650 
4036 1 -0.0350186 -0.0524099 -0.0593188 0.000116 0.711116 -0.102137 -0.419804 2650 
1856 1 -0.037987 -0.0597995 -0.0567631 0.000116 -0.713846 1.33424 -1.52088 2650 
1058 1 -0.0390807 -0.0554383 -0.056725 0.000116 0.723102 -0.572827 -0.498181 2650 
3000 1 -0.039054 -0.0517788 -0.0563714 0.000423 -1.24216 -0.623164 0.860569 2650 
1393 1 -0.0359024 -0.061654 -0.0559554 0.000116 9.68285 0.36747 -6.41592 2650 
2829 1 -0.0451135 -0.0454975 -0.0520557 0.000116 -0.777613 -1.11356 0.673908 2650 
2395 1 -0.0390253 -0.0626328 -0.0503362 0.000116 6.32061 0.114748 -5.16027 2650 
734 1 -0.0534382 -0.0625289 -0.0405574 0.000116 9.6665 -0.108195 -4.90902 2650 
935 1 -0.0560007 -0.0472121 -0.0395837 0.000423 0.838583 -0.147015 -1.18638 2650 
1471 1 -0.0567852 -0.0600001 -0.0384498 0.000423 -0.236667 -0.376152 0.349526 2650 
4016 1 -0.057257 -0.0450291 -0.038297 0.000116 0.108835 0.904078 -0.162716 2650 
3619 1 -0.0560178 -0.062607 -0.0375462 4.2e-05 4.48908 -2.55115 1.96488 2650 
51 1 -0.0589031 -0.0454194 -0.0351193 0.000423 0.429669 -0.00264241 -0.720652 2650 
2296 1 -0.0630013 -0.0552139 -0.0278543 0.000116 -0.381646 -1.12961 0.863213 2650 
2201 1 -0.0634285 -0.0552554 -0.0254565 0.000656 0.854626 0.0355018 -2.12942 2650 
3479 1 -0.0644127 -0.0601331 -0.024414 0.000116 4.67335 0.739057 -12.3294 2650 
3753 1 -0.0643204 -0.0596689 -0.0237874 0.000423 -0.61701 -0.664208 1.66838 2650 
3547 1 -0.0657202 -0.0495337 -0.0195908 0.000423 -0.133422 0.29361 0.447586 2650 
854 1 -0.0662511 -0.0605409 -0.018863 0.000116 0.843546 1.92585 -2.96273 2650 
3785 1 -0.0667612 -0.0492412 -0.0169694 0.000116 1.05789 1.41048 -4.16198 2650 
486 1 -0.0666818 -0.0505869 -0.0160152 0.000423 -0.183836 0.967766 0.765431 2650 
4139 1 -0.0674587 -0.0562129 -0.013941 0.000116 0.414355 0.148674 -2.00501 2650 
390 1 -0.0676153 -0.058886 -0.0131605 0.000116 0.432142 -1.07426 -2.22024 2650 
1231 1 -0.0673236 -0.0486431 -0.013057 0.000423 -0.216692 -0.131573 1.11729 2650 
3090 1 -0.067931 -0.0601029 -0.00939794 0.000423 -0.142157 0.0336665 1.02755 2650 
1934 1 -0.0685507 -0.0576318 -0.00676998 0.000116 0.788464 -0.108699 -7.98374 2650 
3691 1 -0.0687638 -0.0616387 -0.00406909 0.000116 0.102194 -0.0468008 -1.72699 2650 
1816 1 -0.0688227 -0.0593005 -0.00290888 0.000116 0.01785 0.047447 -0.422322 2650 
239 1 -0.0682978 -0.0600107 0.0061939 0.000423 0.148061 0.238775 1.63262 2650 
3038 1 -0.0681445 -0.0606695 0.00843915 0.000116 -0.520662 0.0364544 -3.12764 2650 
3586 1 -0.0663908 -0.0590058 0.0183654 0.000116 -0.580173 0.166914 -2.09732 2650 
1630 1 -0.0654601 -0.0518077 0.0214475 0.000116 0.245512 0.42898 0.749331 2650 
843 1 -0.0652155 -0.0501611 0.0221802 0.000116 0.176577 0.0629614 0.51918 2650 
1784 1 -0.0644831 -0.0514984 0.0233426 0.000423 0.351981 -0.220088 0.972335 2650 
1030 1 -0.0615735 -0.0485004 0.0301936 0.000423 0.557195 -0.156373 1.13628 2650 
4376 1 -0.0612934 -0.0610182 0.0315963 4.2e-05 -0.264823 -0.0111662 -0.513729 2650 
2 1 -0.0587325 -0.0473529 0.0349527 0.000656 0.808895 0.203484 1.35922 2650 
1316 1 -0.0412485 -0.0575893 0.0378685 4.2e-05 -6.43616 -2.69823 -1.84004 2650 
95 1 -0.0556503 -0.0518296 0.0405964 0.000116 -1.47123 -0.0305043 -2.01678 2650 
3891 1 -0.0536151 -0.0486586 0.0427594 0.000423 0.159774 -0.600403 0.200337 2650 
2833 1 -0.0467265 -0.052725 0.0506128 0.000116 -1.36164 1.04624 -1.25709 2650 
3360 1 -0.0445846 -0.0518137 0.0525094 0.000116 -1.05162 1.66895 -0.892907 2650 
2848 1 -0.0437954 -0.0532346 0.0532652 4.2e-05 -5.34873 -0.260751 -4.3978 2650 
2711 1 -0.0433662 -0.0525379 0.0535201 0.000116 -0.711004 1.33465 -0.576111 2650 
3933 1 -0.0398256 -0.0524506 0.0562045 0.000116 0.711209 0.0622962 0.503951 2650 
518 1 -0.034676 -0.0607179 0.0595198 0.000116 -2.04563 -0.0575149 -1.19177 2650 
3088 1 -0.0330754 -0.0622015 0.0600746 0.000423 0.540048 0.0247047 0.297335 2650 
3549 1 -0.0311658 -0.0621023 0.0610932 0.000423 -0.88999 0.0135299 -0.302676 2650 
2451 1 -0.0280026 -0.0588252 0.0626004 0.000423 2.8447 0.684171 1.2725 2650 
1912 1 -0.0244902 -0.0468072 0.0640561 0.000423 1.61399 0.180347 0.617065 2650 
2965 1 -0.0215901 -0.0601723 0.065491 4.2e-05 -1.16941 -0.864374 -0.385514 2650 
1825 1 -0.0196924 -0.0461714 0.0660093 0.000116 -1.96584 0.711477 -0.586463 2650 
1377 1 -0.0173609 -0.062684 0.0666606 0.000116 -11.1695 2.63471e-08 -2.90895 2650 
578 1 -0.0149603 -0.0518611 0.0669264 0.000423 -2.09639 0.239574 -0.468612 2650 
2210 1 -0.0125953 -0.0569059 0.0671757 0.000656 2.83678 0.258899 0.520483 2650 
2599 1 -0.0115773 -0.0565243 0.0675561 0.000116 5.98108 1.87929 -0.680132 2650 
856 1 -0.0101204 -0.0615764 0.0681366 0.000116 -0.624497 -1.13105 -0.0927567 2650 
2081 1 -0.0108203 -0.0558273 0.0681038 4.2e-05 -14.0996 1.13873 -2.24013 2650 
1185 1 -0.00752215 -0.0544107 0.0684722 0.000116 -3.07229 -0.989482 -0.337513 2650 
3154 1 -0.00291467 -0.0466867 0.0688224 0.000116 -0.887845 0.22618 -0.0376008 2650 
4026 1 -0.00324542 -0.0265653 -0.0688076 0.000116 2.60873 -0.503328 -0.123045 2650 
3155 1 -0.001772 -0.0266499 -0.0688613 0.000116 -0.994172 -0.486304 0.0255829 2650 
3357 1 -0.000713947 -0.0238207 -0.0688804 0.000116 -0.841338 0.0590023 0.00872049 2650 
1296 1 -0.003906 -0.0116634 -0.0687733 0.000116 -1.33409 -0.330445 0.07577 2650 
419 1 -0.00355838 -0.0072218 -0.0687922 0.000116 -3.02554 -0.107374 0.156501 2650 
1055 1 -0.00446283 -0.00584925 -0.0687394 0.000116 -3.19588 -0.13493 0.207489 2650 
3633 1 -0.00290753 -0.0327052 -0.0685164 0.000423 -2.62522 0.230024 0.111403 2650 
1107 1 -0.000863335 -0.0197785 -0.0683408 0.000656 -2.60194 -0.183269 0.0328697 2650 
596 1 -0.00115829 -0.0176808 -0.0685683 0.000423 -3.21663 -0.372106 0.0543367 2650 
1208 1 -0.00775476 -0.0130325 -0.0685206 4.2e-05 3.43951 -2.09362 -0.389263 2650 
817 1 -0.00387527 -0.0122586 -0.0684685 0.000423 -1.39821 -0.371237 0.0791381 2650 
1461 1 -0.00887555 -0.00791234 -0.0680013 0.000423 -1.89679 0.507982 0.24757 2650 
2246 1 -0.00711442 -0.0053733 -0.068208 0.000423 -1.50539 -0.107965 0.15702 2650 
1751 1 -0.0120927 -0.00204941 -0.0678894 4.2e-05 -2.39583 1.33516 0.426754 2650 
3729 1 -0.0104215 -0.0342219 -0.067547 0.000656 -2.23987 0.220872 0.345579 2650 
3219 1 -0.0140115 -0.0256168 -0.0671314 0.000423 1.21731 1.53413 -0.25407 2650 
3096 1 -0.0135629 -0.0206825 -0.0672235 0.000423 -1.41163 -0.440851 0.284573 2650 
82 1 -0.0125431 -0.0130591 -0.0677325 0.000116 -1.78427 0.156719 0.330423 2650 
163 1 -0.0117969 -0.0122738 -0.0675558 0.000423 -1.72674 0.452135 0.301531 2650 
1135 1 -0.0110296 -0.00929094 -0.0676853 0.000423 -1.52806 0.171578 0.249003 2650 
1076 1 -0.0126539 -0.00669633 -0.0677119 0.000116 -3.14933 -0.153179 0.588545 2650 
631 1 -0.0116982 -0.00670404 -0.0678835 0.000116 -3.14524 -0.160862 0.542011 2650 
3140 1 -0.0174356 -0.0384718 -0.066641 0.000116 -1.61769 -0.14003 0.423243 2650 
3084 1 -0.0154321 -0.0313872 -0.0665812 0.000656 -2.4455 -0.318222 0.566911 2650 
2574 1 -0.0164305 -0.0306967 -0.0665807 0.000423 -2.35696 0.48777 0.581415 2650 
1239 1 -0.014924 -0.0286919 -0.0669345 0.000423 1.43988 -0.0389272 -0.321047 2650 
1987 1 -0.0145582 -0.0203168 -0.0667777 0.000656 -1.30096 0.0675353 0.283654 2650 
3089 1 -0.0146506 -0.0154995 -0.0669949 0.000423 -2.70833 -0.292458 0.592265 2650 
21 1 -0.0170318 -0.00777931 -0.0664294 0.000423 -1.42437 0.495543 0.365191 2650 
3946 1 -0.0194746 -0.0434975 -0.066151 4.2e-05 11.2349 2.43703 -3.30751 2650 
3978 1 -0.0198347 -0.0344613 -0.065647 0.000423 -1.99822 -0.000779242 0.603747 2650 
3079 1 -0.0169347 -0.0316436 -0.0662149 0.000656 -1.8429 0.0324231 0.471654 2650 
3426 1 -0.0190193 -0.0290817 -0.0658879 0.000423 -0.0539418 -0.680328 0.0155711 2650 
3514 1 -0.0181805 -0.0265404 -0.0658837 0.000656 -0.501411 0.247394 0.138361 2650 
3692 1 -0.0200792 -0.0224073 -0.0658927 0.000116 -1.31143 0.093596 0.399627 2650 
2282 1 -0.0207802 -0.0137157 -0.065675 0.000116 -3.03588 -0.254541 0.960581 2650 
2238 1 -0.0186314 -0.0106998 -0.0659986 0.000423 -1.1669 0.607617 0.329416 2650 
2117 1 -0.0201667 -0.00487486 -0.0655458 0.000423 -2.7398 0.130451 0.842965 2650 
2803 1 -0.0230423 -0.0289431 -0.0649159 0.000116 2.37289 -0.77217 -0.842271 2650 
2183 1 -0.0242924 -0.023518 -0.0644585 0.000116 -1.89392 -0.395717 0.713759 2650 
2626 1 -0.000221211 -0.0221035 -0.0643061 0.000116 6.59537 -0.505091 0.184892 2650 
2460 1 -0.0253018 -0.0226356 -0.0637398 0.000423 -1.56417 -0.380872 0.620904 2650 
433 1 -0.0275337 -0.0102212 -0.0632226 4.2e-05 -2.87689 -0.120034 1.2529 2650 
1378 1 -0.0280466 -0.0105369 -0.0629159 0.000116 -2.92644 -0.180135 1.30455 2650 
306 1 -0.0286478 -0.000591508 -0.0626444 0.000116 -1.54849 0.193985 0.708139 2650 
1649 1 -0.0166712 -7.42438e-05 -0.0625589 4.2e-05 9.57647 -0.0823042 5.00776 2650 
3887 1 -0.0295795 -0.039947 -0.0618709 0.000423 -1.83986 -0.22138 0.879609 2650 
681 1 -0.0286581 -0.037899 -0.062303 0.000423 -1.8276 0.127225 0.84066 2650 
1170 1 -0.0305446 -0.0224315 -0.0617418 0.000116 -0.460927 -0.686033 0.227115 2650 
1323 1 -0.0306482 -0.0194066 -0.0610891 0.000656 0.278877 -0.154271 -0.139912 2650 
114 1 -0.0324325 -0.0026448 -0.060161 0.000656 -2.43504 -0.152396 1.31272 2650 
3069 1 -0.0351482 -0.0169481 -0.059328 4.2e-05 -0.890166 -0.538219 0.527368 2650 
3399 1 -0.0355005 -0.0361007 -0.0591179 4.2e-05 5.95144 -1.18733 -3.57387 2650 
107 1 -0.0355218 -0.0124576 -0.0591051 4.2e-05 -2.5982 0.427276 1.56151 2650 
3314 1 -0.0352076 -0.0117039 -0.0588504 0.000423 -0.917134 1.14432 0.548681 2650 
1690 1 -0.0307641 -0.0214495 -0.0577922 0.000423 -2.53993 -1.08541 1.50623 2650 
2014 1 -0.0369082 -0.014222 -0.0577991 0.000423 -2.54461 0.193101 1.62489 2650 
1320 1 -0.0371852 -0.0101339 -0.058073 4.2e-05 5.00855 -1.15518 -3.20707 2650 
4342 1 -0.0365613 -0.00975936 -0.0583806 0.000116 -2.24593 0.243717 1.40653 2650 
940 1 -0.0379662 -0.0164452 -0.0574769 0.000116 -2.97317 -0.543924 1.96392 2650 
3385 1 -0.0393357 -0.032768 -0.0565484 0.000116 1.90546 -0.98696 -1.32546 2650 
295 1 -0.0394711 -0.0283275 -0.056454 0.000116 0.165487 2.54385 -0.115704 2650 
4037 1 -0.0403784 -0.00220479 -0.0558087 0.000116 -2.48526 -0.0724874 1.79812 2650 
29 1 -0.0408094 -0.0364084 -0.0551139 0.000423 -0.909216 1.06629 0.673234 2650 
2232 1 -0.0418199 -0.0406698 -0.0543251 0.000423 -1.10533 0.152569 0.523353 2650 
2234 1 -0.0426227 -0.0370305 -0.0537239 0.000423 -1.68715 0.0147053 1.33853 2650 
50 1 -0.0447974 -0.0207426 -0.0519222 0.000423 -0.03711 0.0291014 0.226918 2650 
2038 1 -0.0458345 -0.0147993 -0.051422 0.000116 -1.87805 -0.430241 1.67398 2650 
3378 1 -0.0453258 -0.0125412 -0.0518709 0.000116 -0.887418 0.306153 0.775443 2650 
1050 1 -0.0385636 -0.0002248 -0.0516005 0.000116 7.86489 -0.0366035 -14.798 2650 
1760 1 -0.0181095 -0.00026433 -0.0520695 4.2e-05 8.14521 -0.127919 -0.822832 2650 
1640 1 -0.0463637 -0.00543897 -0.0510452 4.2e-05 -0.955577 0.20625 0.867939 2650 
1914 1 -0.04782 -0.0258353 -0.0491548 0.000423 -1.03276 -0.0692784 1.00472 2650 
2768 1 -0.0474345 -0.00697743 -0.0495269 0.000423 -1.22766 -0.221821 1.1758 2650 
4068 1 -0.0484731 -0.0264802 -0.0485109 0.000423 -1.031 -0.232062 1.03019 2650 
3671 1 -0.0490596 -0.00314142 -0.0479177 0.000423 -1.27282 0.348823 1.30315 2650 
2245 1 -0.049707 -0.0223366 -0.0472458 0.000423 -2.24717 0.22394 2.36423 2650 
892 1 -0.0496736 -0.00407135 -0.046944 0.000656 -1.27086 -0.111649 1.34476 2650 
2002 1 -0.0498093 -0.0016064 -0.0471379 0.000423 -1.36749 -0.0476436 1.44499 2650 
1111 1 -0.0504791 -0.0419219 -0.0460767 0.000656 -1.68404 0.312405 1.84494 2650 
1964 1 -0.0510465 -0.00240365 -0.0462523 0.000116 -1.32372 -0.00738133 1.46092 2650 
2242 1 -0.0504227 -0.000866649 -0.0464812 0.000423 -1.35403 0.0715761 1.46886 2650 
2996 1 -0.0520475 -0.0127909 -0.0446543 0.000423 -1.64018 0.136064 1.91174 2650 
42 1 -0.053025 -0.0187499 -0.0434856 0.000423 2.2999 1.09029 -2.66386 2650 
1202 1 -0.0486445 -0.00327195 -0.0438292 4.2e-05 -0.622063 -0.660017 -16.5221 2650 
228 1 -0.0531929 -0.00854659 -0.0429152 0.000656 -1.59291 0.227632 1.9744 2650 
4210 1 -0.0538205 -0.0236014 -0.0425006 0.000423 1.14052 -0.986413 -1.43988 2650 
417 1 -0.0542149 -0.00398412 -0.0424944 0.000116 -1.99302 0.0182229 2.54272 2650 
1723 1 -0.0547582 -0.00959059 -0.0417919 0.000116 -1.59023 -0.420265 2.08362 2650 
3779 1 -0.0547255 -0.00910167 -0.0413288 0.000423 -1.52335 -0.187144 2.01715 2650 
2527 1 -0.0548308 -0.0061855 -0.0418185 4.2e-05 4.19468 -2.02835 -5.49991 2650 
2062 1 -0.0553028 -0.00556473 -0.040684 0.000116 -1.48039 -0.133045 2.9335 2650 
3198 1 -0.0556218 -0.0346143 -0.0401144 0.000423 -0.13667 0.28399 0.189504 2650 
4098 1 -0.0559268 -0.0290096 -0.0396881 0.000423 -0.804529 -0.30793 1.13371 2650 
1792 1 -0.0559029 -0.01496 -0.0397217 0.000423 -1.48634 -0.159605 2.09183 2650 
3540 1 -0.0565753 -0.0253294 -0.0387582 0.000423 2.18907 1.48268 -3.19538 2650 
197 1 -0.0573141 -0.016088 -0.0382114 0.000116 -1.75197 -0.336763 2.62781 2650 
38 1 -0.0568183 -0.012107 -0.0384009 0.000423 -1.31067 -0.292936 1.93928 2650 
1177 1 -0.0576673 -0.0110972 -0.0376764 0.000116 -1.50796 -0.660157 2.30808 2650 
1290 1 -0.0582786 -0.0375737 -0.0367237 0.000116 -0.611661 -2.25756 0.970674 2650 
3229 1 -0.0584764 -0.0200662 -0.035705 0.000423 -0.55817 1.23287 0.357677 2650 
1042 1 -0.0583446 -0.0185141 -0.0360396 0.000423 -0.914445 0.555946 1.4804 2650 
1196 1 -0.0592083 -0.028795 -0.0352052 0.000116 -0.614496 -0.55179 1.03346 2650 
338 1 -0.0588284 -0.0226176 -0.0347912 0.000656 -1.11928 0.0870347 1.89259 2650 
2821 1 -0.0596673 -0.0354302 -0.0344215 0.000116 0.0972404 -0.766607 -0.168559 2650 
322 1 -0.059654 -0.0253777 -0.034592 4.2e-05 1.44789 -0.797998 -2.49689 2650 
2256 1 -0.0599818 -0.0421268 -0.0338705 0.000116 2.06376 0.39953 -3.65475 2650 
2765 1 -0.0597061 -0.0304474 -0.0337362 0.000423 -0.706569 0.558057 1.25048 2650 
3260 1 -0.0604618 -0.0409162 -0.0330059 0.000116 0.268149 -1.49445 -0.49121 2650 
203 1 -0.0170353 -0.00437437 -0.0329722 0.000116 -2.64981 -0.115164 -5.12877 2650 
3626 1 -0.058421 -0.0108512 -0.0318002 0.000656 -3.25096 -0.440215 1.59673 2650 
186 1 -0.00595744 -0.00390435 -0.031704 0.000116 -0.866462 -0.0930552 -4.47619 2650 
3602 1 -0.0609973 -0.00138565 -0.0320054 0.000116 -1.01168 -0.0830791 1.9281 2650 
1994 1 -0.0613158 -0.0256596 -0.0307137 0.000423 -1.17958 0.476442 2.35486 2650 
2192 1 -0.062139 -0.0162507 -0.0298991 4.2e-05 -1.07187 -0.57871 2.22766 2650 
4069 1 -0.0618647 -0.0102566 -0.0295924 0.000423 -0.949793 0.138455 1.9856 2650 
3261 1 -0.0623248 -0.00248654 -0.0293366 0.000116 -0.431197 -0.110353 0.916065 2650 
2291 1 -0.0625737 -0.0145927 -0.028802 0.000116 -1.2211 -0.170943 2.65291 2650 
1206 1 -0.0628107 -0.0140787 -0.028461 4.2e-05 -1.51926 -0.94788 3.35285 2650 
4293 1 -0.0624065 -0.00361914 -0.028432 0.000423 -0.575173 0.405316 1.26247 2650 
615 1 -0.0629908 -0.0039559 -0.0278789 0.000116 -0.633421 -0.0121314 1.54086 2650 
2898 1 -0.0629828 -0.0188662 -0.0271314 0.000423 -0.237476 0.125952 0.551277 2650 
2685 1 -0.0631059 -0.0159469 -0.0268439 0.000423 -0.437692 0.551133 1.02895 2650 
2480 1 -0.0636803 -0.0312415 -0.0262649 0.000116 -0.171599 0.726654 0.416048 2650 
287 1 -0.0635751 -0.000800296 -0.0265184 0.000116 -0.753552 -0.0111268 1.80656 2650 
3054 1 -0.0641925 -0.0334778 -0.0249868 0.000116 -0.336067 -1.01876 0.863375 2650 
807 1 -0.0639232 -0.0153687 -0.0248349 0.000423 -1.10087 -0.198669 2.83356 2650 
1312 1 -0.0513781 -0.000280101 -0.02478 4.2e-05 -0.312294 -0.0559798 -7.95207 2650 
2102 1 -0.0639117 -0.0249677 -0.0242179 0.000656 -0.854238 0.0741545 2.25436 2650 
2007 1 -0.0640854 -0.0146468 -0.0244135 0.000423 -1.15227 -0.291082 3.02471 2650 
160 1 -0.0643418 -0.00922144 -0.0237294 0.000423 -0.938106 0.153614 2.54366 2650 
2911 1 -0.0642117 -0.000448879 -0.0240793 0.000423 -0.89134 -0.0228226 2.37691 2650 
1275 1 -0.0647065 -0.00989541 -0.0236239 0.000116 -1.04754 -0.0376025 2.86925 2650 
3015 1 -0.0647585 -0.0258443 -0.0225675 0.000423 -0.808822 0.163929 2.32096 2650 
3393 1 -0.0117303 -0.0059329 -0.0224833 4.2e-05 -1.48898 -0.325011 -3.15756 2650 
897 1 -0.06521 -0.0289027 -0.0212275 0.000423 -0.308834 0.595266 0.948724 2650 
3622 1 -0.0650014 -0.0160126 -0.021119 0.000656 -0.521352 0.249233 1.60465 2650 
208 1 -0.0661512 -0.0408191 -0.0188986 0.000116 2.19334 1.74863 -0.209094 2650 
693 1 -0.0659983 -0.0389681 -0.0186327 0.000423 0.894014 2.04445 -3.16669 2650 
3210 1 -0.0662643 -0.0108653 -0.0176635 0.000423 -0.807363 -0.0478617 3.0288 2650 
2132 1 -0.0664327 -0.0177491 -0.0170192 0.000423 0.585715 0.0678557 -2.28627 2650 
606 1 -0.000183 0.00220202 -0.016592 0.000116 0 -0.011753 0 2650 
2520 1 -0.000306375 0.00475158 -0.0166796 4.2e-05 -0.0125271 0.0201098 0.013978 2650 
2172 1 -0.00319916 -0.00139901 -0.0163363 0.000116 0.0682862 0.00746542 -0.00852403 2650 
30 1 -0.00110019 -0.000535919 -0.0160833 0.000423 -0.0136125 -0.0214967 0.00834717 2650 
2013 1 -0.00288034 0.00292797 -0.0159886 0.000423 -0.00154235 0.00221798 0.00156406 2650 
1679 1 -0.00391468 0.00370914 -0.0159718 0.000423 -0.00453729 0.0157155 0.00260015 2650 
2283 1 -0.00352154 0.00375383 -0.0164406 0.000116 -0.00010552 0.00956354 0.000789399 2650 
2301 1 -0.004222 0.00397502 -0.016305 4.2e-05 0 -0.011753 0 2650 
3121 1 -0.00082178 0.00516747 -0.0161982 0.000423 0.0292552 0.00121421 5.81941e-05 2650 
978 1 -0.00358292 0.00653578 -0.0162996 0.000116 0.0180122 -0.00353228 -0.00159853 2650 
3934 1 -0.001977 0.00696402 -0.016218 0.000116 0 -0.011753 0 2650 
3177 1 -0.000439739 0.00869762 -0.0158682 4.2e-05 0.00917698 -0.00185525 -0.00666376 2650 
289 1 -0.00284574 0.0097084 -0.0158952 0.000116 -0.00850769 0.000708308 0.0302001 2650 
1483 1 -0.000391265 0.00958964 -0.0159285 0.000423 -0.00134867 0.0112238 -0.0085204 2650 
3007 1 -0.0023945 0.0109968 -0.0162013 0.000423 -0.0135196 -0.00505473 -0.0280609 2650 
3500 1 -0.00143089 0.0107908 -0.0160327 4.2e-05 -0.0454796 -0.00333034 0.0313479 2650 
371 1 -0.00052757 0.0104549 -0.0158471 0.000423 -0.00202239 0.0122439 -0.00806147 2650 
188 1 -0.00191173 0.011622 -0.0164807 0.000116 -0.0148612 0.0228045 0.00418427 2650 
3644 1 -0.00115173 0.0128788 -0.015948 0.000423 -0.000399523 0.00418678 0.0157329 2650 
2713 1 -0.000734236 0.0128709 -0.0163524 0.000116 0.00037122 0.035974 0.00535071 2650 
2924 1 -0.00485961 0.0139685 -0.0159847 0.000116 -0.059039 0.0353164 0.00422158 2650 
148 1 -0.00420726 0.0330847 -0.0159657 0.000423 -0.15418 -0.150743 0.0286835 2650 
4010 1 -0.00454712 0.0386707 -0.0159531 0.000116 -0.0944465 0.099748 0.0197066 2650 
4021 1 -0.0671617 -0.00528956 -0.0153078 0.000116 -0.656612 0.805839 2.88083 2650 
3470 1 -0.0671789 -0.00161972 -0.0152321 0.000116 0.0709385 -0.268098 -0.312865 2650 
509 1 -0.00743246 -0.000171946 -0.0151227 0.000116 -0.0177725 -0.00949189 -0.00542934 2650 
736 1 -0.00603144 -0.000320409 -0.0153915 0.000116 -0.0307431 -0.0170391 0.0144389 2650 
2399 1 -0.002418 0.00241602 -0.015541 0.000116 0 -0.011753 0 2650 
3637 1 -0.00472637 0.00321962 -0.0156108 0.000423 -0.0121297 0.0118194 -0.00377228 2650 
2438 1 -0.00584003 0.00727098 -0.015049 0.000423 -0.00468347 -0.000292455 -0.00123863 2650 
3830 1 -0.006879 0.00851602 -0.015411 4.2e-05 0 -0.011753 0 2650 
233 1 -0.00426071 0.00919813 -0.015275 0.000423 0.0114684 -0.00558491 0.0116559 2650 
2793 1 -0.000801247 0.00918321 -0.0151439 0.000423 0.0113251 0.0911454 -0.00570485 2650 
86 1 -0.00336887 0.00984224 -0.0150018 0.000116 -0.0196067 0.0126222 0.000798653 2650 
2969 1 -0.00205129 0.00964927 -0.0150948 0.000656 -0.00775713 0.0181674 -1.8219e-05 2650 
1617 1 -0.00106246 0.0100624 -0.0150219 0.000116 0.0304013 0.00375314 0.0183235 2650 
938 1 -0.00142873 0.0098849 -0.0155016 0.000116 -0.00119823 0.000558801 -0.00633771 2650 
1839 1 -0.00126532 0.0145212 -0.015245 0.000116 -0.0676852 0.0211351 0.0188737 2650 
3279 1 -0.00145783 0.0458169 -0.0150384 0.000116 0.0698602 -0.118112 -0.0910458 2650 
945 1 -0.00542935 0.049755 -0.0157671 0.000116 -0.192436 -0.107086 0.0844573 2650 
2827 1 -0.00646589 -0.00338111 -0.0142497 0.000116 -0.25313 -0.053762 -0.55186 2650 
2666 1 -0.0059805 -0.0024815 -0.0143269 0.000423 0.0429038 -0.00888448 0.00629481 2650 
269 1 -0.000442533 -0.0031337 -0.0143743 0.000423 -0.0067037 -0.0325502 -0.00931701 2650 
1053 1 -0.007469 -0.00142598 -0.014946 0.000116 0 -0.011753 0 2650 
1991 1 -0.00680779 0.00035216 -0.0145309 0.000656 -0.019376 -0.00203791 0.00870126 2650 
3239 1 -0.00549534 0.00135593 -0.0146958 0.000116 -0.0248133 -0.00752354 0.0120924 2650 
857 1 -0.00223737 0.00175791 -0.0149576 0.000116 -0.0623021 0.0193526 0.00200378 2650 
150 1 -0.00770495 0.00296757 -0.0142697 0.000423 -0.0542472 0.016714 0.0257745 2650 
220 1 -0.00347185 0.00312946 -0.0142941 4.2e-05 0.00197382 0.00663681 0.00671825 2650 
1388 1 -0.00414351 0.00538638 -0.0145748 0.000116 -0.039288 0.0021603 0.0169103 2650 
3365 1 -0.002315 0.00484202 -0.014552 0.000116 0 -0.011753 0 2650 
4227 1 -0.000556547 0.00533427 -0.0149013 0.000116 0.00143204 -0.0228975 -0.0290312 2650 
1611 1 -0.00480859 0.00565878 -0.0142463 0.000116 0.0134772 -0.0209987 -0.0751807 2650 
2313 1 -0.00390311 0.00773907 -0.0142827 0.000656 0.0121795 0.0249345 0.010824 2650 
581 1 -0.0056368 0.0080182 -0.0145945 0.000423 0.000441693 0.00100922 0.00165067 2650 
2092 1 -0.00662691 0.00912846 -0.0148677 0.000656 -0.00887933 -0.00148106 0.0309159 2650 
3669 1 -4.2486e-05 0.0101295 -0.0148617 0.000423 0.00311727 -0.00583333 -0.00141597 2650 
1228 1 -0.00165007 0.0112242 -0.0149708 0.000423 -0.0026547 0.0243513 0.000515369 2650 
4231 1 -0.0011457 0.0178201 -0.0147557 0.000116 -0.0134934 0.0153003 0.0304581 2650 
2021 1 -0.00646699 0.054878 -0.014608 0.000423 0.132959 -0.0939981 -0.0898992 2650 
4331 1 -0.0674639 -0.011946 -0.0139157 0.000116 0.308287 0.82506 -1.49459 2650 
623 1 -0.00752887 -0.000144697 -0.0135212 0.000116 -0.0192086 -0.00896372 0.0230222 2650 
2332 1 -0.00523058 -0.000488102 -0.0136568 0.000423 -0.0114447 -0.00779769 0.00753018 2650 
2922 1 -0.0073392 0.00138778 -0.0138824 0.000116 -0.00925852 -0.000802711 0.00675368 2650 
676 1 -0.0044691 0.00228771 -0.01352 0.000423 -0.0128147 0.00889048 0.0204924 2650 
2512 1 -0.00801107 0.00279187 -0.0134845 0.000116 0.018779 -0.0192413 0.00230208 2650 
3587 1 -0.00808186 0.00345956 -0.0139206 0.000116 -0.0579635 0.0255056 0.0285778 2650 
1032 1 -0.00592124 0.00323566 -0.013495 0.000423 0.0299121 -0.00820922 0.0127278 2650 
1684 1 -0.000113087 0.00329757 -0.0137663 0.000423 -0.00348729 -0.0115683 0.00145358 2650 
2913 1 -0.00891262 0.00492855 -0.0137288 0.000116 -0.0140945 -0.0228944 -0.00540615 2650 
1192 1 -0.0064981 0.00509441 -0.0139155 0.000116 -0.0160738 0.0171838 -0.0228619 2650 
2344 1 -0.000454006 0.0053842 -0.014008 0.000423 0.00575909 -0.0231993 -0.0217047 2650 
2322 1 -0.00896339 0.00624578 -0.0135255 0.000656 -0.00203824 -0.0128094 0.00373659 2650 
2918 1 -0.00730262 0.00616609 -0.0139507 0.000116 0.0149777 0.0131491 0.0124233 2650 
1288 1 -0.002467 0.00614502 -0.014044 0.000116 0 -0.011753 0 2650 
3515 1 -0.0080211 0.00706267 -0.0139557 0.000656 -0.0102256 -0.00951753 -0.000478524 2650 
963 1 -0.00706923 0.00708705 -0.014028 0.000116 0.00350227 -0.00324664 0.0156587 2650 
1618 1 -0.00998677 0.00745439 -0.0135287 0.000116 0.0059414 0.00192455 -0.00369393 2650 
1250 1 -0.00855044 0.00789211 -0.0134322 0.000423 -0.00730125 -0.00574558 -0.000431452 2650 
2222 1 -0.000756144 0.00769804 -0.0138215 0.000423 0.00109584 0.00172293 0.0219135 2650 
3702 1 -5.22691e-05 0.0073254 -0.0138674 0.000116 0.068038 -0.000891572 -0.0314572 2650 
4257 1 -0.00792436 0.0079094 -0.0135577 0.000116 -0.00578911 -0.00907208 0.00958653 2650 
1769 1 -0.00751952 0.00857696 -0.0140004 0.000656 -0.0105422 -0.00425692 -0.00491908 2650 
1204 1 -0.00413661 0.00822222 -0.0134379 4.2e-05 -0.244761 -0.0524989 -0.393231 2650 
1237 1 -0.00933648 0.00897158 -0.0134864 0.000423 0.00205875 0.0105454 -1.45263e-05 2650 
4190 1 -0.00857123 0.00882611 -0.0140712 0.000423 -0.0108251 0.00653221 0.00770144 2650 
1476 1 -0.00722465 0.00990333 -0.0134355 0.000423 -0.00473027 0.00118609 -0.000138689 2650 
1827 1 -0.00671719 0.0101722 -0.0137257 0.000116 0.0445821 -0.0304485 -0.00868089 2650 
1409 1 -0.00044 0.00992502 -0.013868 0.000116 0 -0.011753 0 2650 
70 1 -0.00683823 0.0104775 -0.0137392 0.000116 0.0420474 0.0335815 -0.0676972 2650 
2781 1 -0.00599677 0.0103856 -0.0138862 0.000423 -0.00287998 0.011096 -0.0317373 2650 
2182 1 -0.000512796 0.0107548 -0.0142052 0.000116 -0.0273815 0.022445 -0.0411396 2650 
3150 1 -0.000676934 0.0108364 -0.0136264 0.000116 -0.0182263 -0.0087302 -0.0269448 2650 
3163 1 -0.00767357 0.0122482 -0.0135521 0.000116 -0.0370466 0.0283549 -0.0433006 2650 
2466 1 -0.0077918 0.0197972 -0.0139516 0.000423 0.048327 0.0396991 -0.0547289 2650 
1195 1 -0.00778222 0.0284193 -0.0137878 0.000116 0.0557766 0.0782116 -0.0138054 2650 
4234 1 -0.00403357 0.029121 -0.0134729 0.000116 -0.0277623 0.0670651 -0.0707711 2650 
2643 1 -0.00615895 0.0308807 -0.0137238 0.000656 -0.0823633 0.0688822 0.0201377 2650 
1124 1 -0.00352732 0.0358243 -0.0135062 0.000423 0.115227 0.0704534 -0.0460588 2650 
437 1 -0.067677 -0.00832632 -0.0132299 4.2e-05 0.166295 1.75235 -0.850674 2650 
4097 1 -0.00769604 -0.00306995 -0.0130483 0.000423 0.0222564 -0.0142204 -0.0225559 2650 
3576 1 -0.0053526 -0.0014875 -0.0128446 0.000116 0.0561059 0.00120064 -0.0311085 2650 
3599 1 -0.00171592 -0.00120279 -0.0131672 0.000116 0.00758272 -0.00512374 -0.0536854 2650 
3191 1 -0.00874832 -0.000332788 -0.0127107 0.000656 -0.0137519 -0.00733615 -0.00341624 2650 
1022 1 -0.0035207 -0.000768744 -0.012678 0.000423 -0.0133246 -0.00545859 0.0210834 2650 
2525 1 -0.004063 0.000372019 -0.013231 4.2e-05 0 -0.011753 0 2650 
4126 1 -0.00690197 0.000817824 -0.0129358 0.000116 -0.0261531 0.0084042 0.00402279 2650 
2619 1 -0.00588251 0.00116826 -0.0128419 0.000116 -0.0137973 -0.0204082 0.00531131 2650 
4165 1 -0.00520258 0.00147932 -0.013057 0.000656 -0.00295906 -0.0330191 0.0101422 2650 
3880 1 -0.0103101 0.00211516 -0.0129366 0.000423 -0.00648983 -0.00578589 0.00122545 2650 
2609 1 -0.00886 0.00191202 -0.013248 0.000116 0 -0.011753 0 2650 
3917 1 -0.003984 0.00267302 -0.012703 0.000116 0 -0.011753 0 2650 
2059 1 -0.003583 0.00288202 -0.012756 0.000116 0 -0.011753 0 2650 
2474 1 -0.00223304 0.00309059 -0.0127339 0.000423 0.0307748 -0.0136667 -0.043701 2650 
3316 1 -0.009371 0.00334215 -0.0130079 0.000423 -0.00544519 -0.0183171 -0.00879554 2650 
1171 1 -0.00763595 0.00330562 -0.0131159 0.000116 0.0131753 -0.0110464 0.0150896 2650 
4300 1 -0.00102752 0.00333709 -0.0128625 0.000423 0.0464595 0.0171624 -0.0680193 2650 
3787 1 -0.00664029 0.00415962 -0.0129065 0.000116 -0.0024271 -0.00223267 -0.0195234 2650 
3446 1 -0.00129297 0.0044026 -0.0129107 0.000423 0.014297 -0.016402 -0.00312272 2650 
1427 1 -0.002948 0.00521302 -0.013376 4.2e-05 0 -0.011753 0 2650 
3362 1 -0.00263224 0.00487623 -0.0126574 0.000116 0.000350619 -0.00253681 -0.00404217 2650 
4078 1 -0.0104588 0.00588428 -0.0126357 0.000423 -0.000913784 0.00267709 0.00687214 2650 
2912 1 -0.00546621 0.00600176 -0.0131484 0.000116 0.00196064 0.0151142 0.00117299 2650 
445 1 -0.0100089 0.00706646 -0.0128564 0.000656 -0.00770604 -0.00218208 -0.00473086 2650 
3259 1 -0.00887386 0.00677613 -0.0127463 0.000116 0.00136236 -0.0113258 0.00321419 2650 
4179 1 -0.00783621 0.00687529 -0.0129014 0.000423 -0.0070231 -0.0226882 -0.00131956 2650 
1795 1 -0.00896791 0.00747454 -0.0127673 0.000423 -0.00333027 -0.00705618 0.0037936 2650 
3364 1 -0.00663145 0.00714404 -0.0127597 0.000116 -0.00179506 0.0163753 -0.0232219 2650 
2483 1 -0.00735901 0.00847526 -0.0129889 0.000116 0.0222317 -0.00887276 -0.000700143 2650 
205 1 -0.000743784 0.00793126 -0.0133349 0.000116 0.00114706 0.000219934 0.0269812 2650 
3847 1 -0.0094538 0.00990318 -0.0129343 0.000656 0.00218348 0.0145646 -0.00497691 2650 
2453 1 -0.00621067 0.0100293 -0.0130314 0.000423 0.00287214 0.0261989 -0.0126472 2650 
1775 1 -0.00823704 0.0107297 -0.0130807 0.000423 -0.000575409 -0.0115316 -0.00160845 2650 
1986 1 -0.00231083 0.0110226 -0.0128547 0.000656 0.00762539 0.0149956 0.0116892 2650 
3471 1 -0.00800355 0.01118 -0.0126719 0.000116 0.00654915 0.0415659 -0.0136084 2650 
3838 1 -0.00567846 0.0116036 -0.0128067 0.000656 0.0059045 0.0308137 -0.0288407 2650 
1802 1 -0.0036779 0.0124251 -0.0130822 0.000423 0.00500259 -0.000364755 -0.0111755 2650 
949 1 -0.00804672 0.0134104 -0.0132705 0.000116 -0.0176518 0.0277962 -0.00593252 2650 
478 1 -0.00635989 0.0151714 -0.0132253 0.000423 0.0184535 0.00116934 0.020279 2650 
1143 1 -0.000181057 0.015468 -0.0130818 0.000423 0.0070315 0.0110531 -0.00616027 2650 
2497 1 -0.0110298 0.0215929 -0.0127045 0.000116 0.231916 0.119576 -0.203137 2650 
1717 1 -0.00277436 0.0249034 -0.0131203 0.000116 -0.014717 0.0706098 -0.0348682 2650 
2084 1 -0.0108016 0.0310882 -0.0129386 4.2e-05 0.264644 0.101196 -0.228625 2650 
352 1 -0.00160582 0.0329856 -0.0129845 0.000423 0.0736471 -0.159457 0.0441779 2650 
2530 1 -0.00876031 -0.00344076 -0.0125334 0.000656 -0.724342 -0.0478301 -1.0772 2650 
1763 1 -0.001143 -0.00294198 -0.012442 0.000656 0 -0.011753 0 2650 