ITEM: TIMESTEP
4891494
ITEM: NUMBER OF ATOMS
4361
ITEM: BOX BOUNDS ff ff ff
-0.15 0.15
-0.15 0.06
-0.15 0.15
ITEM: ATOMS id type x y z radius vx vy vz density 
1417 1 -0.0042356 -0.0517752 -0.0687538 0.000116 -2.20037 -0.163288 0.135554 2650 
2855 1 -0.00306636 -0.049576 -0.0688898 4.2e-05 -0.411681 0.350638 0.0183243 2650 
1499 1 -0.00702635 -0.0618169 -0.0684818 0.000116 0.811204 0.0489792 0.472247 2650 
1591 1 -0.00431957 -0.0482109 -0.0684419 0.000423 -2.10735 -0.00289199 0.133001 2650 
868 1 -0.00844521 -0.0466521 -0.0683645 0.000116 -2.0896 -2.04824 0.258133 2650 
169 1 -0.0243568 -0.0513952 -0.0644342 0.000116 0.953048 -0.91496 -0.360262 2650 
632 1 -0.0257546 -0.0517335 -0.0638883 0.000116 0.422036 0.780573 -0.170131 2650 
3708 1 -0.0286923 -0.0610817 -0.0626241 0.000116 0.258092 -1.31229 -0.118249 2650 
3724 1 -0.0335769 -0.0603907 -0.0602312 4.2e-05 10.363 1.02882 -5.77704 2650 
3425 1 -0.0368499 -0.0538465 -0.0578363 0.000423 -2.47727 -1.07358 1.57837 2650 
758 1 -0.039187 -0.0582438 -0.0566517 0.000116 9.66437 0.320817 -6.68503 2650 
1996 1 -0.0385886 -0.0493293 -0.056691 0.000423 -2.17288 0.138945 1.47904 2650 
4316 1 -0.0436551 -0.0568279 -0.0528884 0.000423 -2.05582 -0.545953 1.69691 2650 
4250 1 -0.0393376 -0.0504936 -0.0528531 0.000116 -2.85833 4.3079 -0.56962 2650 
1380 1 -0.0508317 -0.0457558 -0.0464883 0.000116 6.87857 1.09511 -7.52124 2650 
669 1 -0.0521637 -0.0505542 -0.0441606 0.000656 -1.95409 0.44488 2.30822 2650 
1781 1 -0.0536164 -0.0486144 -0.0427578 0.000423 -1.23647 0.0333206 1.55047 2650 
1535 1 -0.0555939 -0.0478296 -0.0407986 4.2e-05 3.7285 0.555293 -5.08061 2650 
1197 1 -0.057333 -0.0483686 -0.038183 0.000116 0.929692 -0.812044 -1.39596 2650 
1051 1 -0.0578079 -0.0572104 -0.0374602 0.000116 -0.929615 -0.454696 1.43457 2650 
2237 1 -0.0586957 -0.0524381 -0.035465 0.000423 -1.36353 0.550383 2.25669 2650 
734 1 -0.0597786 -0.0626032 -0.0342277 0.000116 0.765231 0.0187282 -1.33648 2650 
1961 1 -0.0614721 -0.0605918 -0.0310839 0.000116 1.08822 -2.79945 -2.15208 2650 
19 1 -0.0621878 -0.0571439 -0.0289073 0.000423 -1.26803 -0.58175 2.7279 2650 
418 1 -0.0650771 -0.046287 -0.0224329 0.000116 -0.8581 -2.15887 2.19884 2650 
4150 1 -0.0676217 -0.0499514 -0.0131272 0.000116 0.372249 -0.919632 -1.91756 2650 
2201 1 -0.0673172 -0.0620753 -0.0118149 0.000656 -0.21177 0.0201356 1.20659 2650 
2557 1 -0.0684302 -0.0468337 -0.0045009 0.000423 -0.107375 0.00589884 1.6325 2650 
3331 1 -0.0684833 -0.0544647 -0.00360439 0.000423 -0.150805 -0.128912 2.86529 2650 
51 1 -0.0685265 -0.0623683 0.00267506 0.000423 -0.453384 0.00613148 -11.6143 2650 
3692 1 -0.0688342 -0.0579871 0.00262194 0.000116 -0.0206105 0.26241 -0.54109 2650 
2083 1 -0.0688279 -0.0568062 0.004234 4.2e-05 0.0418206 0.237303 0.679835 2650 
2833 1 -0.0685378 -0.0608871 0.00661183 0.000116 0.83793 0.428552 -6.98 2650 
534 1 -0.067517 -0.0598498 0.010703 0.000116 0.959656 3.80786 3.14929 2650 
4037 1 -0.0677847 -0.0515416 0.0122586 0.000116 -2.24296 0.18056 -12.4026 2650 
1239 1 -0.0614832 -0.0536156 0.0303771 0.000423 0.67537 -0.241694 1.36694 2650 
343 1 -0.0613323 -0.0523884 0.0306806 0.000423 1.1233 0.139198 2.24555 2650 
1520 1 -0.0617256 -0.0513156 0.0305774 0.000116 -3.04151 0.116643 -6.13979 2650 
689 1 -0.0594733 -0.0590235 0.0341449 0.000423 1.30905 -0.310192 2.28009 2650 
4288 1 -0.0587269 -0.0623765 0.0354304 0.000423 -7.00568 -0.00213808 -10.3886 2650 
3957 1 -0.0575515 -0.057621 0.0368649 0.000656 1.04947 0.23703 1.63837 2650 
483 1 -0.0535797 -0.0455403 0.0428038 0.000423 1.02945 0.221107 1.28861 2650 
1463 1 -0.0497387 -0.0484725 0.0472124 0.000423 1.67628 -0.310369 1.76598 2650 
3840 1 -0.0454717 -0.0566504 0.0510248 0.000656 1.83404 -0.378881 1.6388 2650 
3850 1 -0.0452402 -0.0555838 0.0515391 0.000423 1.05401 0.942756 0.931449 2650 
2803 1 -0.0433995 -0.0600178 0.053493 0.000116 -1.3969 -0.0181902 -1.13332 2650 
4019 1 -0.0388004 -0.0472534 0.0569171 0.000116 2.34444 0.0836372 1.5982 2650 
2274 1 -0.0376967 -0.0542258 0.057654 0.000116 -1.50201 -0.807524 -0.982079 2650 
3440 1 -0.0350111 -0.0466752 0.0589676 0.000423 1.52655 0.438551 0.906362 2650 
1132 1 -0.0343464 -0.0462901 0.0593572 0.000423 1.50625 0.563815 0.871576 2650 
893 1 -0.0318591 -0.0496781 0.0607285 0.000423 1.34552 -0.216922 0.70588 2650 
2612 1 -0.0300044 -0.0544189 0.0620061 0.000116 -5.28787 0.324406 -2.55877 2650 
3357 1 -0.0297865 -0.0532337 0.0621111 0.000116 3.45753 0.467466 1.65812 2650 
747 1 -0.0278644 -0.0615398 0.0629968 0.000116 1.71764 -0.44531 0.75974 2650 
1270 1 -0.0286297 -0.0530213 0.0626527 0.000116 0.804112 -0.621326 0.367446 2650 
4020 1 -0.0117151 -0.055278 0.0678806 0.000116 2.18884 0.258293 0.377759 2650 
1601 1 -0.0067281 -0.0502977 0.0685548 0.000116 -7.58397 -0.277932 -0.744305 2650 
4133 1 -0.00989445 -0.0486781 0.0681698 0.000116 -0.0286386 0.152959 -0.00415673 2650 
3276 1 -0.0015466 -0.0543494 0.0688668 0.000116 -1.49771 0.49898 -0.0336352 2650 
4139 1 -0.00338965 -0.0342495 -0.0688007 0.000116 7.34967 0.859864 -0.362101 2650 
1202 1 -0.00506225 -0.0234143 -0.068772 4.2e-05 -1.80522 0.12544 0.132881 2650 
1818 1 -0.00293934 -0.0188377 -0.0688214 0.000116 -3.20025 0.0753716 0.136682 2650 
838 1 -0.00395478 -0.00675566 -0.0687705 0.000116 -3.20842 -0.161818 0.184506 2650 
1958 1 -0.00370099 -0.00251461 -0.0687846 0.000116 4.19904 -0.403876 -0.225931 2650 
1537 1 -0.00106046 -0.00243844 -0.0689499 4.2e-05 -3.94973 -0.00493895 0.0607477 2650 
3266 1 -0.00974731 -0.0258316 -0.068191 0.000116 5.81694 2.29584 -0.83148 2650 
1020 1 -0.000806406 -0.0211682 -0.0685733 0.000423 -1.68244 -0.114651 0.0197848 2650 
1363 1 -0.00811827 -0.011851 -0.0680959 0.000423 -3.19224 -0.384831 0.380573 2650 
1282 1 -0.00701397 -0.0118294 -0.0685261 0.000116 -3.18699 -0.22429 0.326204 2650 
1598 1 -0.0110117 -0.0021514 -0.0679983 0.000116 -1.20045 -0.256487 0.194402 2650 
844 1 -0.0148924 -0.0341918 -0.067255 0.000116 -2.13333 -0.377604 0.472386 2650 
4320 1 -0.0133273 -0.0333803 -0.0672706 0.000423 -2.31446 -0.0617815 0.458527 2650 
3422 1 -0.0110422 -0.022783 -0.0676832 0.000423 -2.02302 -0.19971 0.330046 2650 
1647 1 -0.0134027 -0.0142371 -0.067643 4.2e-05 -2.68513 -0.19637 0.53203 2650 
3040 1 -0.0140922 -0.0115375 -0.0674272 0.000116 -1.57696 1.85558 0.329583 2650 
2738 1 -0.0139597 -0.00984947 -0.0675302 4.2e-05 -3.16184 -0.228236 0.653611 2650 
3964 1 -0.0145668 -0.0282461 -0.0670131 0.000423 -2.44582 -0.058178 0.531654 2650 
146 1 -0.0148241 -0.0163232 -0.0669567 0.000423 -3.07844 -0.211624 0.68156 2650 
3734 1 -0.0137726 -0.0160127 -0.0669442 0.000656 -3.07611 -0.201661 0.632855 2650 
378 1 -0.0149061 -0.00968502 -0.0669385 0.000423 -2.73368 0.0706916 0.608745 2650 
3516 1 -0.0161793 -0.0088044 -0.0664036 0.000656 -2.76077 0.29973 0.672665 2650 
2578 1 -0.0195165 -0.0296452 -0.0657424 0.000423 -2.70283 0.255188 0.802373 2650 
2247 1 -0.0186283 -0.0291374 -0.0659995 0.000423 -2.31618 0.0618551 0.653738 2650 
2000 1 -0.0183396 -0.0203898 -0.0660803 0.000423 -0.675798 0.00185898 0.187101 2650 
3330 1 -0.01885 -0.0190039 -0.0659366 0.000423 -2.54518 0.477543 0.72762 2650 
2087 1 -0.0200437 -0.0169221 -0.0659808 4.2e-05 -0.390435 -0.465851 0.118606 2650 
312 1 -0.0193998 -0.000996872 -0.0660959 0.000116 -2.76367 -0.0641188 0.811163 2650 
3522 1 -0.0204801 -0.0233026 -0.0654486 0.000423 -1.51562 -0.278444 0.474266 2650 
1813 1 -0.0243432 -0.0330452 -0.0641121 0.000423 -2.61582 -0.403264 0.993221 2650 
2920 1 -0.0256443 -0.0272402 -0.0639327 0.000116 -2.89365 -0.169217 1.16068 2650 
2672 1 -0.022856 -0.00992903 -0.0646572 0.000423 -3.01343 -0.219464 1.06523 2650 
4360 1 -0.0259251 -0.0316696 -0.0638194 0.000116 -3.48447 -0.388039 1.41548 2650 
55 1 -0.0267115 -0.0257741 -0.0631621 0.000423 -1.83643 -0.114508 0.776636 2650 
4177 1 -0.0268805 -0.0325516 -0.0630903 0.000423 -2.50123 -0.383111 1.06568 2650 
3974 1 -0.0277296 -0.0270278 -0.0627217 0.000423 -1.95484 -0.650434 0.864247 2650 
2386 1 -0.0282842 -0.0158359 -0.0628094 0.000116 -2.92186 -0.181678 1.31577 2650 
1922 1 -0.027147 -0.0133969 -0.0629762 0.000423 -2.9435 -0.202271 1.26885 2650 
3426 1 -0.0290825 -0.0259885 -0.062106 0.000423 -2.78677 -0.604538 1.30496 2650 
2965 1 -0.0287823 -0.0209693 -0.061714 4.2e-05 8.06093 -3.15124 -1.10682 2650 
204 1 -0.0265397 -0.020735 -0.060616 0.000116 7.80381 -0.119598 -7.75529 2650 
786 1 -0.034429 -0.0082 -0.0593094 0.000423 -2.75436 -0.185283 1.5989 2650 
4373 1 -0.0344003 -0.00446974 -0.0592133 4.2e-05 -0.961186 -0.0790539 4.15273 2650 
3047 1 -0.0335057 -0.02045 -0.0588127 0.000116 2.08087 -0.130693 0.000289255 2650 
3024 1 -0.0355107 -0.0190153 -0.0590255 0.000116 -2.7499 -0.159526 1.65439 2650 
3482 1 -0.0362282 -0.00466071 -0.0585879 0.000116 -3.55881 -0.199639 2.20062 2650 
482 1 -0.0365573 -0.0293062 -0.0580217 0.000423 -1.59822 0.469625 1.00698 2650 
1955 1 -0.019503 -0.0214272 -0.0579144 0.000116 13.2445 -0.205562 -4.32808 2650 
1760 1 -0.0377197 -0.00215811 -0.0577272 4.2e-05 -3.97412 -0.020995 2.59675 2650 
1619 1 -0.0388005 -0.00378407 -0.056917 0.000116 -1.90999 -1.45491 1.30205 2650 
2421 1 -0.039029 -0.0330508 -0.0561066 0.000656 -2.39854 -0.0261696 1.66847 2650 
3089 1 -0.0396429 -0.0102724 -0.055959 0.000423 -3.89614 -0.334565 2.76013 2650 
1945 1 -0.0403163 -0.00749461 -0.0558535 0.000116 -2.45839 -0.0831476 1.77452 2650 
2112 1 -0.0410261 -0.0197128 -0.0549529 0.000423 -2.61409 -0.404182 1.95159 2650 
4017 1 -0.0422566 -0.00245764 -0.0544004 0.000116 0.117737 -0.169517 -0.0914549 2650 
2060 1 -0.041497 -0.0204529 -0.0536652 0.000116 -0.809032 -0.22651 0.0739041 2650 
4303 1 -0.0444679 -0.0257446 -0.0522069 0.000423 -1.49121 -0.106578 1.27016 2650 
3337 1 -0.0314316 -0.00616611 -0.0526409 0.000423 -4.93236 -0.191358 -8.2617 2650 
822 1 -0.0456635 -0.0289225 -0.0511644 0.000423 -1.93118 -0.0959718 1.72355 2650 
4021 1 -0.0461571 -0.0099858 -0.0511326 0.000116 -0.212939 0.974822 0.192218 2650 
3862 1 -0.0484713 -0.0351103 -0.0485128 0.000423 -2.08839 -0.296094 2.08661 2650 
2873 1 -0.0493275 -0.0329299 -0.0476419 0.000423 -1.90924 -0.160346 1.97679 2650 
4116 1 -0.0497578 -0.00584362 -0.047636 0.000116 -2.22093 -0.14479 2.31985 2650 
3580 1 -0.0505684 -0.0227757 -0.0467745 0.000116 -1.245 0.855751 1.34598 2650 
2634 1 -0.0511573 -0.00915954 -0.04624 4.2e-05 -2.13513 -0.191746 2.36219 2650 
3904 1 -0.0510699 -0.00582936 -0.0462265 0.000116 -2.15406 -0.142878 2.37976 2650 
2700 1 -0.0517435 -0.0161336 -0.0454712 0.000116 -2.11607 -0.240684 2.40796 2650 
1712 1 -0.0522153 -0.0194259 -0.0449287 0.000116 -2.09085 -0.10157 2.42995 2650 
3443 1 -0.0533869 -0.0244721 -0.0430441 0.000423 -1.59188 -0.205667 1.97438 2650 
1630 1 -0.0538683 -0.012429 -0.0429329 0.000116 -1.99995 -0.320154 2.50935 2650 
2256 1 -0.0545232 -0.0438212 -0.0420987 0.000116 -0.374924 0.0239805 0.58511 2650 
843 1 -0.0543223 -0.0436622 -0.0420913 0.000116 -0.411827 -0.00996799 0.697415 2650 
3831 1 -0.0556852 -0.0359333 -0.0406739 4.2e-05 6.52908 1.28129 -8.93875 2650 
4319 1 -0.0562954 -0.0405289 -0.0391635 0.000423 -1.6032 -0.01756 2.30451 2650 
2051 1 -0.0551404 -0.0209283 -0.0388204 0.000116 0.788189 -0.547977 -1.32208 2650 
427 1 -0.0569919 -0.0156273 -0.0386903 0.000116 -0.408491 0.316706 0.601719 2650 
2327 1 -0.0571184 -0.0398762 -0.0379532 0.000423 -1.74202 -0.227964 2.62169 2650 
991 1 -0.056899 -0.0273682 -0.0378644 0.000656 -1.59145 -0.255692 2.39147 2650 
3549 1 -0.0568831 -0.0178199 -0.0383049 0.000423 -1.76965 -0.171178 2.62795 2650 
2599 1 -0.0565318 -0.0218264 -0.0376611 0.000116 -1.06212 -0.818076 1.27944 2650 
955 1 -0.0575667 -0.00605456 -0.0378299 0.000116 -1.76806 -0.156584 2.69049 2650 
8 1 -0.0583919 -0.0340088 -0.035519 0.000656 -1.47219 0.161403 2.42022 2650 
3431 1 -0.0584882 -0.0293453 -0.0358063 0.000423 -1.44541 0.0923121 2.36103 2650 
2959 1 -0.0586752 -0.00954643 -0.0362275 4.2e-05 -1.68943 -0.194359 2.73625 2650 
2690 1 -0.0587855 -0.0146667 -0.035316 0.000423 -1.64906 -0.356345 2.74495 2650 
3656 1 -0.0593673 -0.022556 -0.0343289 0.000423 -1.24312 -0.303186 2.14981 2650 
107 1 -0.0445575 -0.0200358 -0.0340047 4.2e-05 6.43093 -0.091815 -2.86919 2650 
1410 1 -0.0605927 -0.0188144 -0.032765 0.000116 -1.33903 0.0659313 2.47629 2650 
710 1 -0.0602252 -0.0084878 -0.0328006 0.000423 -1.52923 -0.196554 2.80782 2650 
518 1 -0.0286489 -0.00558446 -0.0329033 0.000116 -4.39901 -0.244127 -5.01693 2650 
1856 1 -0.0604216 -0.000690854 -0.0330795 0.000116 1.64341 0.971624 -3.00178 2650 
295 1 -0.0610966 -0.0137545 -0.0318155 0.000116 -1.47482 -0.238438 2.83215 2650 
3743 1 -0.0612727 -0.0222921 -0.0307994 0.000423 -1.14766 -0.328911 2.28318 2650 
2970 1 -0.0608854 -0.018593 -0.0310511 0.000656 -0.998168 -0.291528 1.95722 2650 
3464 1 -0.0616847 -0.0108988 -0.0306599 0.000116 -1.42827 -0.223127 2.87354 2650 
992 1 -0.0624801 -0.0350309 -0.0277027 0.000656 -0.920176 -0.316762 2.07553 2650 
2091 1 -0.0623677 -0.0337416 -0.0279549 0.000656 -1.1046 -0.178723 2.46418 2650 
1060 1 -0.0632711 -0.0357429 -0.0272357 0.000116 -1.00079 -0.574947 2.32493 2650 
3679 1 -0.0638084 -0.00689107 -0.0259522 0.000116 -1.20742 -0.198471 2.96866 2650 
2532 1 -0.0639224 -0.028032 -0.0241897 0.000656 -1.01375 -0.157927 2.67887 2650 
4212 1 -0.0641881 -0.0160078 -0.024142 0.000423 -1.14451 -0.198958 3.04298 2650 
2790 1 -0.0646287 -0.0448275 -0.0229364 0.000423 -0.810836 -0.374835 2.28473 2650 
2248 1 -0.0646378 -0.0231782 -0.022911 0.000423 -0.838354 -0.213112 2.36521 2650 
2259 1 -0.064754 -0.00697085 -0.0234935 0.000116 -1.00653 -0.186189 2.77424 2650 
3933 1 -0.0651636 -0.00570869 -0.0223323 0.000116 -1.0382 -0.131038 3.02938 2650 
574 1 -0.0655541 -0.0292812 -0.0201399 0.000423 -0.712272 0.0839005 2.3184 2650 
3135 1 -0.0659144 -0.0122226 -0.0200079 0.000116 -0.928891 -0.21633 3.06016 2650 
3502 1 -0.00158953 -0.00342299 -0.0190538 4.2e-05 -0.156993 -0.0405042 -1.88189 2650 
3960 1 -0.0121106 -0.00589905 -0.0183686 0.000423 -1.27715 -0.427675 -1.93038 2650 
2340 1 -0.0662533 -0.0282122 -0.0177046 0.000423 -0.583986 -0.0462704 2.18536 2650 
2072 1 -0.0665208 -0.027275 -0.0178887 0.000116 -0.325798 -0.769636 1.21151 2650 
1249 1 -0.066442 -0.0322603 -0.0169826 0.000423 -0.768062 -0.24352 3.00493 2650 
606 1 -0.000183 0.00352168 -0.016592 0.000116 0 -0.011753 0 2650 
302 1 -0.000838779 0.00586133 -0.016584 0.000116 0.0171051 0.0203877 0.0103663 2650 
188 1 -0.000417267 0.00709145 -0.0167746 0.000116 0.0165449 0.115943 -0.0162865 2650 
2713 1 -0.000763 0.0104927 -0.016767 0.000116 0 -0.011753 0 2650 
2875 1 -0.00430792 -0.00359123 -0.0160643 0.000423 -0.0271883 -0.239666 -0.185771 2650 
736 1 -0.003429 0.00144668 -0.016474 0.000116 0 -0.011753 0 2650 
150 1 -0.00247297 0.00088668 -0.0162562 0.000423 -0.00913371 0.00501626 0.00203877 2650 
676 1 -0.00217531 0.00199905 -0.016297 0.000423 -0.0135783 -0.00452781 0.0177143 2650 
1679 1 -0.00362972 0.00282573 -0.0158894 0.000423 -0.000267589 -0.00703629 -0.00433961 2650 
2013 1 -0.00281074 0.00304451 -0.0161691 0.000423 0.00298908 -0.00809762 0.00112683 2650 
2301 1 -0.004222 0.00529468 -0.016305 4.2e-05 0 -0.011753 0 2650 
3121 1 -0.00411501 0.00502596 -0.0158995 0.000423 0.0295457 0.00139416 -0.0105356 2650 
1698 1 -0.000259525 0.00552881 -0.0165019 0.000423 0.0411176 0.0348153 -1.85855e-05 2650 
3616 1 -9.58626e-05 0.00625105 -0.0161356 4.2e-05 0.03094 0.00266257 -0.00226281 2650 
1219 1 -0.0010677 0.00632736 -0.0160061 0.000656 0.0133734 0.0239605 0.00857101 2650 
3546 1 -0.000290028 0.00720135 -0.0161659 0.000423 0.025704 0.0149609 0.00360255 2650 
3934 1 -0.001977 0.00828368 -0.016218 0.000116 0 -0.011753 0 2650 
192 1 -0.000171327 0.00803435 -0.0163623 0.000116 0.0003015 -0.0085404 -0.100133 2650 
913 1 -0.000609984 0.0215301 -0.0164401 0.000423 -0.0131935 0.0940792 0.0439723 2650 
555 1 -0.0665441 -0.0252578 -0.0155914 0.000656 -0.637615 0.14042 2.72017 2650 
1991 1 -0.00460381 0.000589926 -0.0155056 0.000656 -0.0197706 -0.00214867 0.00868857 2650 
3239 1 -0.00264734 0.00154975 -0.0155117 0.000116 -0.00859694 0.0134975 -0.018679 2650 
3589 1 -0.00585392 0.00357805 -0.0156598 0.000116 0.155503 0.064687 -0.0402711 2650 
2399 1 -0.002418 0.00373568 -0.015541 0.000116 0 -0.011753 0 2650 
2313 1 -0.00508169 0.004764 -0.0153035 0.000656 -0.00213445 0.0338551 -0.0263352 2650 
1620 1 -0.00476507 0.00646805 -0.0155127 0.000116 0.0529387 0.0514306 -0.00503745 2650 
978 1 -0.005372 0.00698168 -0.015286 0.000116 0 -0.011753 0 2650 
2969 1 -0.00124395 0.0072614 -0.0150978 0.000656 -0.00214235 0.0311769 0.000161156 2650 
508 1 -0.00764024 0.00789583 -0.0150185 0.000116 -0.0609474 0.0130298 0.0475554 2650 
1483 1 -6.90932e-06 0.00798985 -0.015107 0.000423 -0.023592 0.00968138 -0.006304 2650 
3177 1 -0.001068 0.00933968 -0.015412 4.2e-05 0 -0.011753 0 2650 
3830 1 -0.006879 0.00983568 -0.015411 4.2e-05 0 -0.011753 0 2650 
86 1 -0.002064 0.00953968 -0.015055 0.000116 0 -0.011753 0 2650 
371 1 -0.000480748 0.0101704 -0.0150768 0.000423 0.000724313 -0.00601752 -0.0061741 2650 
938 1 -0.000869 0.0107457 -0.015416 0.000116 0 -0.011753 0 2650 
568 1 -0.0044364 0.015726 -0.0153589 0.000423 0.0183062 0.0263973 -0.10881 2650 
3216 1 -0.00443929 0.0227152 -0.0153252 0.000423 -0.00544148 0.107266 0.0543995 2650 
1357 1 -0.00483464 0.0417031 -0.0157335 0.000423 0.0681058 0.285169 -0.0155587 2650 
3536 1 -0.067012 -0.030553 -0.0145721 0.000423 -0.572286 -0.225327 2.63174 2650 
1392 1 -0.0670887 -0.0253494 -0.0144526 0.000116 -0.78941 -0.119214 4.25235 2650 
2620 1 -0.0673229 -0.0173992 -0.0145827 0.000116 -0.677881 -0.121029 3.12952 2650 
800 1 -0.00803456 -0.00223231 -0.0143033 0.000423 0.0375092 0.0208022 0.142985 2650 
1053 1 -0.007469 -0.000106322 -0.014946 0.000116 0 -0.011753 0 2650 
2827 1 -0.00444713 -0.000476874 -0.0143076 0.000116 -0.0201753 -0.0226203 0.0017234 2650 
623 1 -0.00678649 0.000765704 -0.014384 0.000116 -0.00477071 -0.00938024 -0.0420845 2650 
3733 1 -0.00575647 0.000615327 -0.0142908 0.000656 -0.024164 0.0138988 0.0212093 2650 
2332 1 -0.00394553 0.000387444 -0.0145023 0.000423 -0.0114447 -0.00779769 0.00753018 2650 
2817 1 -0.00212599 0.000432613 -0.0146155 0.000116 0.0100645 -0.056664 0.00630574 2650 
222 1 -0.00184937 0.00118047 -0.0148615 0.000656 -0.00713779 -0.040298 -0.0148088 2650 
2922 1 -0.00586003 0.00194494 -0.0149811 0.000116 -0.0492521 -0.0166623 -0.0574868 2650 
3637 1 -0.00349881 0.0017892 -0.0147707 0.000423 -0.00927015 0.0142513 -0.0137177 2650 
220 1 -0.003649 0.00279868 -0.014897 4.2e-05 0 -0.011753 0 2650 
234 1 -0.00214695 0.00431579 -0.0144371 0.000423 0.0351287 -0.0167305 0.0264562 2650 
2283 1 -0.00117737 0.00419001 -0.0148707 0.000116 -0.0318858 -0.01081 -0.0228231 2650 
4296 1 -0.00232834 0.00533889 -0.0147657 0.000423 -0.0431702 0.0421068 0.0473826 2650 
1618 1 -0.00765443 0.00575712 -0.0149433 0.000116 -0.0316941 0.0615295 0.00665882 2650 
3365 1 -0.002315 0.00616168 -0.014552 0.000116 0 -0.011753 0 2650 
2438 1 -0.00576831 0.00677178 -0.0148607 0.000423 0.00224072 -0.00339368 -0.0261897 2650 
4227 1 -6.1079e-05 0.00749067 -0.0143813 0.000116 -0.00921828 -0.0161692 0.0154311 2650 
4190 1 -0.00803649 0.00856344 -0.0143964 0.000423 -0.009489 7.8582e-05 0.00632979 2650 
3515 1 -0.00689133 0.008117 -0.0142925 0.000656 -0.00618896 -0.0090925 0.00826116 2650 
1617 1 -0.00447877 0.00945065 -0.0149109 0.000116 0.0304875 0.00968505 -0.0492471 2650 
1228 1 -0.00139587 0.00960802 -0.0149935 0.000423 -0.00123313 -0.0118667 -0.000623591 2650 
3669 1 -0.000328962 0.0108959 -0.0145343 0.000423 0.00220454 -0.00743356 -0.00383523 2650 
142 1 -0.00193537 0.0219569 -0.0148028 0.000423 -0.0926872 0.0526713 -0.0970482 2650 
2467 1 -0.00211019 0.0275949 -0.0147836 0.000423 0.0301791 0.103437 0.0421276 2650 
3352 1 -0.00861857 0.0537297 -0.014351 0.000116 -0.873308 0.00025933 0.643558 2650 
921 1 -0.0672378 -0.0351856 -0.0134917 0.000423 -0.556063 -0.420762 2.77123 2650 
3196 1 -0.00669263 -0.00316671 -0.0140919 0.000423 -0.0151487 -0.0348726 0.0137497 2650 
3153 1 -8.91767e-05 -0.00162752 -0.0138602 0.000116 -0.0842498 -0.0374178 0.0430189 2650 
450 1 -0.0067354 0.00412963 -0.0134254 0.000656 0.0113486 0.0469175 0.00740751 2650 
3587 1 -0.00583723 0.00416932 -0.0139606 0.000116 0.00461134 0.0023037 -0.00278329 2650 
3322 1 -0.00395856 0.00423572 -0.0136376 0.000423 0.0155165 0.0110838 0.0251988 2650 
4165 1 -0.00516487 0.00509223 -0.0140057 0.000656 -0.00035358 -0.0321692 0.0084674 2650 
104 1 -0.00278341 0.00544363 -0.0135121 4.2e-05 -0.00674979 0.0150481 0.0116551 2650 
2596 1 -0.00819437 0.00631745 -0.0139333 0.000116 -0.0442582 -0.0431064 0.0384975 2650 
3950 1 -0.00611771 0.00685812 -0.0138374 0.000656 -0.0401516 -0.0144037 -0.0334096 2650 
1584 1 -0.00120935 0.0063943 -0.0141354 0.000423 -0.00963006 0.0395817 0.04039 2650 
2322 1 -0.00796649 0.0075536 -0.0137063 0.000656 -0.0108707 -0.010103 0.00337555 2650 
1288 1 -0.002467 0.00746468 -0.014044 0.000116 0 -0.011753 0 2650 
1519 1 -0.00175577 0.00719969 -0.0135254 0.000116 -0.0494896 0.0341374 0.0501115 2650 
2222 1 -0.00026583 0.00820074 -0.0141317 0.000423 -0.00549102 -0.00568171 -0.00117535 2650 
581 1 -0.00558692 0.00899577 -0.0142059 0.000423 -0.000469419 -0.0102297 -0.00424824 2650 
963 1 -0.00470835 0.00936303 -0.0138548 0.000116 -0.0353923 -0.062899 -0.0407773 2650 
1986 1 -0.00316703 0.00933887 -0.0141672 0.000656 0.00762539 0.0149956 0.0116892 2650 
233 1 -0.00478955 0.0101103 -0.0135467 0.000423 0.000342891 -0.00976437 -0.0328705 2650 
1476 1 -0.006941 0.0102647 -0.013435 0.000423 0 -0.011753 0 2650 
4257 1 -0.0085536 0.0113152 -0.0141878 0.000116 0.0101268 -0.0416798 0.0036163 2650 
1409 1 -0.00044 0.0112447 -0.013868 0.000116 0 -0.011753 0 2650 
3644 1 -0.000791047 0.0121729 -0.0138292 0.000423 -0.00432743 0.00711996 -0.0325914 2650 
3632 1 -0.00901059 0.0127815 -0.0138239 0.000423 -0.0221559 0.000444483 0.0133776 2650 
3932 1 -0.00554696 0.0194148 -0.0141422 0.000116 0.03152 0.0411719 0.0597923 2650 
1462 1 -0.0673629 -0.0413377 -0.0128523 0.000423 -0.285563 0.313445 1.49671 2650 
330 1 -0.00597437 -0.00265912 -0.0134144 4.2e-05 -0.0696064 -0.0147686 0.0345761 2650 
4097 1 -0.00857259 -0.00230438 -0.0134021 0.000423 0.0242376 0.00709813 -0.00869569 2650 
2645 1 -0.00518305 -0.000895741 -0.0127467 0.000656 -0.0339684 -0.013594 0.0452752 2650 
1468 1 -0.0039094 -0.000911077 -0.0126784 0.000423 -0.0197001 -0.0470204 -0.0326717 2650 
509 1 -0.00719693 -0.000668761 -0.0131529 0.000116 -0.00521486 0.00944493 -0.0325939 2650 
4126 1 -0.00396544 -0.000125822 -0.0133875 0.000116 -0.0261531 0.0084042 0.00402279 2650 
3551 1 -0.00590493 3.11716e-05 -0.0131255 0.000423 -0.0216652 0.0127841 -0.0071385 2650 
541 1 -0.00593726 0.000461645 -0.0129387 4.2e-05 -0.0143735 0.00954058 0.00936495 2650 
2525 1 -0.004063 0.00169168 -0.013231 4.2e-05 0 -0.011753 0 2650 
2619 1 -0.005851 0.00250768 -0.012854 0.000116 0 -0.011753 0 2650 
3880 1 -0.010277 0.00342368 -0.012913 0.000423 0 -0.011753 0 2650 
2609 1 -0.00886 0.00323168 -0.013248 0.000116 0 -0.011753 0 2650 
3645 1 -0.00488253 0.00341898 -0.0129848 0.000423 -0.0357151 -0.0039173 0.0164321 2650 
1171 1 -0.00823027 0.00473229 -0.0130563 0.000116 -0.0146011 -0.0168948 -0.0399555 2650 
2918 1 -0.00757 0.00458268 -0.012948 0.000116 0 -0.011753 0 2650 
3917 1 -0.003984 0.00399268 -0.012703 0.000116 0 -0.011753 0 2650 
2059 1 -0.003583 0.00420168 -0.012756 0.000116 0 -0.011753 0 2650 
3380 1 -0.00219962 0.00470758 -0.0129808 0.000116 -0.00133046 -0.0120531 0.0302183 2650 
2512 1 -0.00975913 0.0048823 -0.0129982 0.000116 0.002514 -0.0160812 -0.0313025 2650 
2219 1 -0.00458739 0.00521362 -0.0128201 0.000423 0.0573797 0.046564 0.0166916 2650 
4310 1 -0.000483685 0.00536903 -0.0131882 0.000423 0.011252 0.0218425 0.101284 2650 
4078 1 -0.00854687 0.0065253 -0.0127456 0.000423 -0.0196946 -0.00953845 0.00130892 2650 
1427 1 -0.002948 0.00653268 -0.013376 4.2e-05 0 -0.011753 0 2650 
1237 1 -0.0102904 0.00767272 -0.0126728 0.000423 -0.0167369 -0.000264958 -0.0403827 2650 
3259 1 -0.00848053 0.00778792 -0.0131651 0.000116 -0.0089878 -0.00810535 0.00538998 2650 
2913 1 -0.00685926 0.007136 -0.0128681 0.000116 -0.028239 -0.0119827 -0.0130286 2650 
1795 1 -0.008775 0.00853168 -0.012959 0.000423 0 -0.011753 0 2650 
1769 1 -0.0059851 0.0086661 -0.0132441 0.000656 -0.0180455 -0.00259761 -0.00548469 2650 
1250 1 -0.00757412 0.00921009 -0.0126765 0.000423 -0.0109693 -0.0170514 -0.0143142 2650 
205 1 -0.000744 0.00924868 -0.01334 0.000116 0 -0.011753 0 2650 
2483 1 -0.0091341 0.00994665 -0.0134114 0.000116 0.00258646 -0.0218162 0.0129531 2650 
1827 1 -0.00511504 0.00970146 -0.0129002 0.000116 -0.0556457 -0.0263815 -0.0392498 2650 
3007 1 -0.000876473 0.0115644 -0.0130505 0.000423 -0.0135196 -0.00505473 -0.0280609 2650 
1775 1 -0.00822622 0.0119876 -0.0130351 0.000423 -7.29146e-05 -0.011186 -0.000346901 2650 
478 1 -0.00666454 0.0145869 -0.012633 0.000423 -0.0255767 0.012458 -0.051203 2650 
675 1 -0.00481909 0.0197278 -0.0128403 0.000423 -0.0171714 0.0807922 0.0289201 2650 
1979 1 -0.00653763 0.0214156 -0.0128418 4.2e-05 -0.060479 0.115177 0.0648972 2650 
2413 1 -0.00738627 -0.00226853 -0.0123041 4.2e-05 -0.0826713 -0.0311639 0.0536157 2650 
2468 1 -0.003167 -0.00191032 -0.012131 0.000423 0 -0.011753 0 2650 
545 1 -0.002328 -0.00228332 -0.012432 4.2e-05 0 -0.011753 0 2650 
1763 1 -0.001143 -0.00162232 -0.012442 0.000656 0 -0.011753 0 2650 
2127 1 -0.0109957 -0.000327748 -0.0120175 0.000423 -0.129436 0.0152094 0.099489 2650 
3191 1 -0.00670158 -0.000361406 -0.0124826 0.000656 -0.0168446 0.00288294 -0.00297772 2650 
1422 1 -0.003881 0.000223678 -0.012349 4.2e-05 0 -0.011753 0 2650 
388 1 -0.00776991 0.000877025 -0.0125762 0.000116 0.0212466 0.0335067 0.0250458 2650 
3201 1 -0.0061316 0.000841529 -0.0125691 0.000423 -0.00608722 0.0216696 0.0089772 2650 
1799 1 -0.00323234 0.00103358 -0.012058 0.000423 7.10678e-05 -0.0118308 4.63239e-05 2650 
93 1 -0.0114828 0.00186279 -0.0121474 0.000116 -0.294036 0.794232 0.336766 2650 
3956 1 -0.00902352 0.00187999 -0.0122993 0.000656 -0.000640959 -0.0104529 -0.000368355 2650 
3389 1 -0.010415 0.00248968 -0.012026 0.000116 0 -0.011753 0 2650 
1125 1 -0.00498029 0.00302249 -0.0122259 0.000423 -0.0456429 0.0111646 0.0284182 2650 
2957 1 -0.00215548 0.00377548 -0.0122556 4.2e-05 0.0205169 0.0248349 -0.000218849 2650 
411 1 -0.010268 0.00470339 -0.0120883 0.000116 -0.00787832 -0.00657823 -8.20909e-05 2650 
3826 1 -0.009208 0.00438468 -0.012552 0.000116 0 -0.011753 0 2650 
1032 1 -0.00729063 0.0041333 -0.0120422 0.000423 -0.0183694 0.00104764 -0.0575954 2650 
2912 1 -0.00613909 0.00449571 -0.0123059 0.000116 0.0152844 0.00719243 -0.0503855 2650 
2194 1 -0.0024059 0.00462872 -0.0125268 4.2e-05 0.00491046 0.00111596 0.00228026 2650 
708 1 -0.0027128 0.00465153 -0.0120279 0.000423 -0.00318183 -0.00599768 -0.010405 2650 
3316 1 -0.008979 0.00513768 -0.012376 0.000423 0 -0.011753 0 2650 
1261 1 -0.00744973 0.00504687 -0.012408 0.000423 0.000611181 -0.0114942 -0.000246774 2650 
3362 1 -0.0026716 0.00516107 -0.0122036 0.000116 0.000350619 -0.00253681 -0.00404217 2650 
3446 1 -0.002592 0.00614468 -0.012627 0.000423 0 -0.011753 0 2650 
3030 1 -0.001189 0.00664768 -0.012596 0.000116 0 -0.011753 0 2650 
4318 1 -0.00848676 0.0078322 -0.0123905 0.000423 -0.00589465 -0.00768269 0.00318441 2650 
191 1 -0.0115232 0.00866894 -0.0119882 0.000116 -0.0068407 0.0371391 0.023513 2650 
3847 1 -0.00970921 0.00863329 -0.0124075 0.000656 0.003414 -0.00345937 -0.00056311 2650 
1495 1 -0.004483 0.00811568 -0.012591 0.000116 0 -0.011753 0 2650 
3684 1 -0.00440072 0.0085796 -0.0122513 0.000116 0.00413104 -0.0230128 -0.00941473 2650 
4179 1 -0.0069774 0.00936009 -0.0119791 0.000423 -0.00767678 -0.0221048 -0.00852388 2650 
3173 1 -0.004958 0.00877668 -0.012321 4.2e-05 0 -0.011753 0 2650 
2630 1 -0.001036 0.00898468 -0.012074 4.2e-05 0 -0.011753 0 2650 
4002 1 -0.000443 0.00880868 -0.01223 0.000116 0 -0.011753 0 2650 
949 1 -0.00606474 0.0102894 -0.0126044 0.000116 -0.0176518 0.0277962 -0.00593252 2650 
1423 1 -0.00145 0.0104647 -0.012526 4.2e-05 0 -0.011753 0 2650 
3106 1 -0.00645683 0.0113555 -0.0119657 0.000423 -0.042507 0.0242048 -0.0146805 2650 
959 1 -0.00576171 0.0111639 -0.012216 0.000116 -0.0723779 0.0623805 -0.0339909 2650 
3798 1 -0.00275613 0.0124821 -0.0121058 0.000116 -0.0483102 0.213285 0.0286816 2650 
2205 1 -0.00507178 0.0132744 -0.0119551 0.000656 -0.00206311 0.000112593 -0.00429342 2650 
1143 1 -0.000970572 0.0142269 -0.0123901 0.000423 0.0070315 0.0110531 -0.00616027 2650 
2109 1 -0.00538877 0.0216218 -0.0121959 0.000423 -0.0277695 0.107912 0.0279852 2650 
819 1 -0.00320778 0.0372164 -0.0119749 0.000423 0.076373 0.150736 0.0329282 2650 
615 1 -0.0679096 -0.020101 -0.011546 0.000116 0.211718 -1.13833 -1.24525 2650 
3505 1 -0.006952 -0.00261432 -0.011235 4.2e-05 0 -0.011753 0 2650 
1022 1 -0.002093 -0.00274432 -0.011454 0.000423 0 -0.011753 0 2650 
2172 1 -0.00968569 -0.00168969 -0.0113535 0.000116 0.0554355 0.00150652 -0.0523356 2650 
1808 1 -0.00870366 -0.00149334 -0.0111129 0.000423 -0.0860968 -0.00568456 0.0777001 2650 
440 1 -0.00061 -0.00131232 -0.011485 4.2e-05 0 -0.011753 0 2650 
2939 1 -0.00930593 0.000569745 -0.0116329 0.000116 -0.00341769 -0.0275913 0.0148239 2650 
3200 1 -0.00782868 0.000467406 -0.0117559 0.000423 -0.0293082 -0.00953204 0.0229812 2650 
248 1 -0.00700378 0.00131294 -0.0113116 0.000423 -0.0134856 -0.00351132 0.050645 2650 
3778 1 -0.00566233 0.00100895 -0.011798 0.000423 -0.0441284 0.0265152 0.0540744 2650 
3894 1 -0.005583 0.00185868 -0.011098 0.000116 0 -0.011753 0 2650 
2279 1 -0.011742 0.00290824 -0.0112492 0.000116 -0.0158908 0.0502304 0.00803902 2650 
3477 1 -0.0109476 0.003002 -0.0110671 0.000116 0.0616358 -0.0139442 -0.0219299 2650 
1063 1 -0.009531 0.00241368 -0.011683 0.000116 0 -0.011753 0 2650 
1595 1 -0.00777699 0.00286268 -0.0117784 0.000423 -0.0081111 0.00198047 0.0261702 2650 
3383 1 -0.0119341 0.00332884 -0.0113942 0.000116 -0.0218075 -0.0186321 -0.0142315 2650 
2285 1 -0.0116466 0.00371482 -0.011483 0.000116 -0.013552 0.00856226 -0.0313614 2650 
1192 1 -0.00469329 0.00316496 -0.0113485 0.000116 -0.0160738 0.0171838 -0.0228619 2650 