ITEM: TIMESTEP
10074534
ITEM: NUMBER OF ATOMS
4299
ITEM: BOX BOUNDS ff ff ff
-0.15 0.15
-0.15 0.06
-0.15 0.15
ITEM: ATOMS id type x y z radius vx vy vz density 
2832 1 -0.00495553 -0.0626248 -0.0687057 0.000116 13.7312 -0.42013 -0.993547 2650 
538 1 -0.00486916 -0.050959 -0.0687118 0.000116 -0.212966 -1.09321 0.0150915 2650 
2588 1 -0.0067851 -0.0495013 -0.0685491 0.000116 0.810714 -1.60559 -0.0802458 2650 
1849 1 -0.0126102 -0.0535654 -0.0677201 0.000116 1.96661 0.38293 -0.366203 2650 
1081 1 -0.00855288 -0.0610734 -0.0658069 0.000116 4.22404 0.480605 -2.3583 2650 
1856 1 -0.0193428 -0.0520927 -0.0661126 0.000116 0.365682 0.0846704 -0.106989 2650 
3248 1 -0.0232757 -0.0622524 -0.0648326 0.000116 10.4401 0.330382 -3.74812 2650 
3828 1 -0.023002 -0.0587396 -0.0647718 4.2e-05 -2.87537 -6.66552 3.42489 2650 
2201 1 -0.0222613 -0.0579373 -0.0646191 0.000656 0.0154566 -0.0835798 -0.00959845 2650 
416 1 -0.024951 -0.0491311 -0.0642065 0.000116 3.36897 -5.10328 -1.3092 2650 
51 1 -0.023488 -0.0491944 -0.0644303 0.000423 0.802833 -0.119048 -0.292671 2650 
3266 1 -0.0262107 -0.0563321 -0.0637026 0.000116 -1.25509 -0.703365 0.516413 2650 
4305 1 -0.0252539 -0.0534665 -0.0637588 0.000423 -0.30918 0.239342 0.122462 2650 
3357 1 -0.0276966 -0.0517841 -0.0630708 0.000116 -0.844454 -0.862501 0.370829 2650 
3522 1 -0.0311213 -0.0564663 -0.0611099 0.000423 2.56354 -0.694278 -1.30553 2650 
1958 1 -0.0334858 -0.0583773 -0.0601974 0.000116 -0.984211 -0.138142 0.547485 2650 
601 1 -0.035161 -0.0622942 -0.058879 0.000423 9.36707 0.00828649 -5.59378 2650 
1768 1 -0.0373087 -0.0489006 -0.0572648 0.000656 -1.01279 -0.51852 0.659847 2650 
3054 1 -0.0397595 -0.0485652 -0.0562513 0.000116 1.78041 0.26509 -1.25843 2650 
392 1 -0.0427903 -0.0566216 -0.0539816 0.000116 4.7625 0.475724 -3.77515 2650 
902 1 -0.0419765 -0.0540516 -0.0542302 0.000423 0.104946 0.413081 -0.0812324 2650 
3260 1 -0.045318 -0.0574552 -0.0518777 0.000116 -0.503038 -0.0219967 0.43943 2650 
1177 1 -0.0466116 -0.0463376 -0.0507187 0.000116 4.81361 3.77802 -4.42381 2650 
3013 1 -0.0493711 -0.0584623 -0.0475967 0.000423 -0.384999 0.178725 0.399352 2650 
3037 1 -0.0520025 -0.0614984 -0.0451748 0.000116 -0.366004 -0.722269 0.421322 2650 
578 1 -0.0520791 -0.0477197 -0.0446176 0.000423 2.38461 -0.281892 -2.78339 2650 
615 1 -0.0540732 -0.0484918 -0.0426745 0.000116 1.7279 -1.93033 -2.18944 2650 
1903 1 -0.0556154 -0.0622478 -0.0377682 0.000423 4.16761 0.0316206 -6.68303 2650 
3372 1 -0.0641507 -0.0517753 -0.0250939 0.000116 0.0961756 -0.110281 -0.245866 2650 
1712 1 -0.0641128 -0.0504799 -0.0251906 0.000116 0.00915796 0.239842 -0.023308 2650 
2183 1 -0.0657371 -0.0624016 -0.0206047 0.000116 -0.325694 -2.44823 0.539271 2650 
1805 1 -0.06611 -0.0596243 -0.0182322 0.000423 0.49217 -0.19716 -1.78461 2650 
1961 1 -0.0664283 -0.0466848 -0.0181141 0.000116 -0.388 -2.30874 1.7299 2650 
814 1 -0.0665287 -0.062216 -0.0160066 0.000423 0.312087 -0.838735 -1.0933 2650 
940 1 -0.0671618 -0.0584886 -0.0153073 0.000116 0.22395 -0.900317 -0.982594 2650 
2829 1 -0.0673704 -0.046276 -0.0143613 0.000116 -0.244091 0.351234 1.14506 2650 
3265 1 -0.0677585 -0.0479462 -0.012402 0.000116 0.770625 1.4771 -4.21033 2650 
2591 1 -0.0667108 -0.0611529 -0.00816665 0.000116 -3.09893 0.292681 -7.41594 2650 
3547 1 -0.0680265 -0.0484186 -0.00868004 0.000423 0.0346017 -0.559089 -0.271178 2650 
1380 1 -0.0684525 -0.0507592 -0.00769887 0.000116 0.300669 0.740174 -2.67332 2650 
2848 1 -0.0685944 -0.0541198 -0.00707232 4.2e-05 0.0236856 -0.0714201 -0.229726 2650 
3688 1 -0.0688759 -0.0569938 0.0010629 0.000116 0.0289286 -0.206949 1.87457 2650 
2123 1 -0.0685214 -0.0526423 0.00278671 0.000423 0.00610713 -0.393666 0.150166 2650 
816 1 -0.0682172 -0.0623144 0.00592814 0.000423 0.273213 -0.0264058 -0.893903 2650 
3549 1 -0.0683311 -0.0600511 0.00581461 0.000423 -0.0461729 0.443817 -0.542606 2650 
1060 1 -0.0685521 -0.0590057 0.00675535 0.000116 -1.00584 0.610151 -10.2071 2650 
2821 1 -0.0678857 -0.0572008 0.0116856 0.000116 0.137931 -0.392652 0.801287 2650 
534 1 -0.0678293 -0.0611947 0.0120086 0.000116 -0.887516 -1.89442 -5.01303 2650 
739 1 -0.0660251 -0.0531646 0.0196394 0.000116 0.830233 -0.322226 2.79114 2650 
358 1 -0.0655013 -0.0496219 0.0203109 0.000423 -0.684574 0.552448 -2.2077 2650 
1278 1 -0.0657052 -0.062239 0.0206845 0.000116 -0.914716 -0.253953 -2.90563 2650 
198 1 -0.0649749 -0.0529543 0.0228753 0.000116 -0.0438218 -1.20665 -0.124471 2650 
2042 1 -0.0649616 -0.0603719 0.0229132 0.000116 -0.571875 0.188907 -1.62133 2650 
2921 1 -0.0648351 -0.059208 0.0232687 0.000116 -3.16624 0.825694 -8.8223 2650 
4098 1 -0.0641423 -0.0467474 0.0242635 0.000423 0.326068 -0.287427 0.861984 2650 
4100 1 -0.0630226 -0.0620525 0.0256837 0.000423 -2.59136 0.856484 -13.1144 2650 
420 1 -0.0615271 -0.0592667 0.0309748 0.000116 -0.592769 -2.94567 -1.17745 2650 
2147 1 -0.0615742 -0.0576658 0.0308812 0.000116 -4.6133 -0.225394 -9.19846 2650 
4376 1 -0.0617953 -0.0483306 0.0306032 4.2e-05 -6.81685 0.321319 -13.7649 2650 
3040 1 -0.0575059 -0.0593181 0.0379222 0.000116 -2.16048 -0.882477 -3.27619 2650 
3090 1 -0.054243 -0.0562001 0.0419601 0.000423 0.534667 0.119963 0.691179 2650 
1598 1 -0.0540037 -0.0514013 0.0427625 0.000116 -5.30977 -1.19539 -6.70558 2650 
2052 1 -0.0537949 -0.0489674 0.0430247 0.000116 1.87645 -1.29511 2.34618 2650 
4373 1 -0.0534744 -0.0621052 0.0435396 4.2e-05 -5.41296 0.304946 -6.64807 2650 
1231 1 -0.0512165 -0.0605492 0.045605 0.000423 0.73143 -0.32019 0.82143 2650 
3812 1 -0.0518892 -0.0572924 0.045305 0.000116 -4.42008 0.878698 -5.06245 2650 
443 1 -0.0492471 -0.0457532 0.0473912 0.000656 1.90363 -0.505467 1.97818 2650 
1753 1 -0.0298497 -0.061852 0.0482792 4.2e-05 -10.4432 0.438294 -6.63991 2650 
4048 1 -0.0456062 -0.0534992 0.0517231 4.2e-05 -1.99733 0.276845 -1.76112 2650 
1227 1 -0.0425294 -0.0598417 0.0537978 0.000423 -0.62893 0.347466 -0.497196 2650 
3505 1 -0.0366423 -0.0468972 0.0559709 4.2e-05 -1.76225 -0.967395 3.70035 2650 
917 1 -0.0343796 -0.0610984 0.0593379 0.000423 -0.336005 0.115728 -0.194676 2650 
2103 1 -0.031245 -0.0622697 0.0611356 0.000423 -5.29835 0.0342292 -2.0532 2650 
1690 1 -0.0267543 -0.049683 0.0631439 0.000423 -1.16424 -0.0120059 -0.493296 2650 
4331 1 -0.0276249 -0.0474953 0.0631022 0.000116 -1.62629 0.910595 -0.711959 2650 
1471 1 -0.0245194 -0.047028 0.0640449 0.000423 -1.07361 1.19132 -0.411025 2650 
2835 1 -0.022108 -0.0624961 0.06524 0.000116 -1.53515 0.753043 -0.520219 2650 
2083 1 -0.0224965 -0.0610592 0.0651853 4.2e-05 1.06185 -0.194022 0.36646 2650 
786 1 -0.021235 -0.0521404 0.0652076 0.000423 -3.1074 0.68884 -1.01193 2650 
3153 1 -0.018028 -0.0498657 0.0664832 0.000116 -3.0156 -1.01413 -0.817729 2650 
1157 1 -0.0148453 -0.0460576 0.0672654 0.000116 1.70421 -0.986857 0.376112 2650 
2823 1 -0.0113436 -0.0599286 0.0679437 0.000116 -1.88058 -0.0693731 -0.313974 2650 
2314 1 -0.00179435 -0.0578956 0.0683227 0.000656 -3.29653 -0.00317548 -0.0865762 2650 
3367 1 -0.000792578 -0.0551197 0.0688796 0.000116 -5.78051 1.02028 -0.0665147 2650 
293 1 -0.00150996 -0.0188065 -0.0688676 0.000116 -0.0382331 -0.220608 0.000838281 2650 
4150 1 -0.00441568 -0.0166298 -0.0687424 0.000116 -0.467026 -0.260709 0.0299995 2650 
3350 1 -0.00527266 -0.00308946 -0.068682 0.000116 -2.20688 0.266557 0.16942 2650 
1047 1 -0.00469755 -0.00118728 -0.0687238 0.000116 1.22329 -0.103129 -0.0836169 2650 
3753 1 -0.00587592 -0.0394651 -0.0683259 0.000423 1.92018 -0.160082 -0.165133 2650 
3741 1 -9.51291e-05 -0.0336452 -0.068578 0.000423 -1.54083 -0.269485 0.00213739 2650 
2018 1 -0.00569087 -0.0329404 -0.0683415 0.000423 -2.00162 0.161441 0.166677 2650 
3748 1 -0.00381423 -0.0297866 -0.0684719 0.000423 -2.14106 0.111302 0.119268 2650 
1616 1 -0.0107733 -0.0260662 -0.0680365 0.000116 -0.396087 -0.348871 0.0627186 2650 
2873 1 -0.00656336 -0.0214555 -0.0682632 0.000423 -0.283597 0.913356 0.0272672 2650 
1915 1 -0.00890921 -0.0114369 -0.0679969 0.000423 -1.82429 -0.162415 0.239025 2650 
453 1 -0.00557289 -0.00378492 -0.0683513 0.000423 -2.31555 0.21685 0.188794 2650 
3330 1 -0.00163481 -0.000966209 -0.0685586 0.000423 -1.87463 0.160387 0.0447013 2650 
4187 1 -0.00707947 -0.000422976 -0.0682117 0.000423 -2.26769 8.87443e-08 0.235356 2650 
3966 1 -0.0111857 -0.035767 -0.0676596 0.000423 -1.19736 -1.21147 0.197952 2650 
3096 1 -0.0119403 -0.0323785 -0.0675306 0.000423 0.56414 -0.528231 -0.0997473 2650 
2143 1 -0.010063 -0.0311774 -0.0678357 0.000423 -0.641572 -0.414658 0.0951732 2650 
3743 1 -0.0133014 -0.0284285 -0.0672757 0.000423 -0.160248 0.293428 0.0316835 2650 
1316 1 -0.0128041 -0.0198363 -0.0677589 4.2e-05 -0.703441 -0.0522941 0.132926 2650 
250 1 -0.0111553 -0.0202485 -0.0676647 0.000423 -0.0169672 -0.00169883 0.00279705 2650 
2139 1 -0.00977874 -0.0173868 -0.0678773 0.000423 0.405709 0.692824 -0.0584484 2650 
1082 1 -0.0143962 -0.0158114 -0.067363 0.000116 -2.737 -0.80773 0.584929 2650 
3807 1 -0.0151579 -0.0142559 -0.0671957 0.000116 -3.125 -0.524991 0.704931 2650 
107 1 -0.0155168 -8.86063e-05 -0.0672012 4.2e-05 -2.38933 0.594733 0.345116 2650 
1323 1 -0.0142424 -0.0434229 -0.0668457 0.000656 0.499681 -0.287924 -0.106464 2650 
2100 1 -0.0133666 -0.0354649 -0.0670264 0.000656 -2.23707 -0.149898 0.44615 2650 
327 1 -0.0118873 -0.0348644 -0.0666938 4.2e-05 3.07094 -0.427674 1.03385 2650 
2418 1 -0.0160526 -0.0291908 -0.0670636 4.2e-05 7.85023 -0.132034 -1.87907 2650 
2091 1 -0.014825 -0.0263725 -0.0667189 0.000656 -0.310347 -0.37356 0.0689594 2650 
502 1 -0.0175946 -0.0114257 -0.0665992 0.000116 -1.03489 -0.226914 0.273402 2650 
322 1 -0.0171955 -0.00689386 -0.0667797 4.2e-05 0.667345 0.0670133 -0.171838 2650 
3647 1 -0.0151569 -0.00257315 -0.0668821 0.000423 -2.31724 -0.0882892 0.525136 2650 
733 1 -0.0185642 -0.000604934 -0.0663355 0.000116 -1.99078 0.178267 0.557127 2650 
365 1 -0.0175516 -0.0166437 -0.066294 0.000423 -2.04385 -0.397542 0.541117 2650 
4285 1 -0.00496204 -0.00514847 -0.0659784 0.000423 -3.15907 -0.121934 -1.48126 2650 
1083 1 -0.0206115 -0.00363981 -0.0657281 0.000116 -2.69469 0.387578 0.845021 2650 
1239 1 -0.0223712 -0.0298531 -0.0648265 0.000423 -0.657981 -0.23537 0.224672 2650 
575 1 -0.0220412 -0.028465 -0.0649396 0.000423 4.89118 3.2691 -1.6597 2650 
4308 1 -0.0220368 -0.0273311 -0.064941 0.000423 -1.76971 -0.104356 0.600528 2650 
138 1 -0.0224911 -0.026195 -0.064785 0.000423 -1.90534 -0.0415961 0.66147 2650 
2349 1 -0.0217738 -0.0245443 -0.0650296 0.000423 -0.577597 0.352847 0.193396 2650 
1922 1 -0.0211207 -0.0081336 -0.0652447 0.000423 -1.85834 -0.0499226 0.601573 2650 
3431 1 -0.0228541 -0.0305648 -0.0646578 0.000423 0.357829 -1.54752 -0.123005 2650 
3483 1 -0.0250085 -0.00776764 -0.0641841 0.000116 -2.22348 -0.108449 0.866347 2650 
3701 1 -0.0237725 -0.00687582 -0.0646521 0.000116 -2.8063 0.0938913 1.03188 2650 
2515 1 -0.024817 -0.00613797 -0.0642584 0.000116 -2.16926 0.109524 0.837779 2650 
1563 1 -0.0247957 -0.00565333 -0.0639384 0.000423 -2.14403 -0.0930488 0.83147 2650 
2837 1 -0.0272871 -0.0252867 -0.063249 0.000116 0.19475 -0.423098 -0.0840196 2650 
2167 1 -0.0273674 -0.007471 -0.0632143 0.000116 -1.85372 0.465294 0.802532 2650 
1002 1 -0.0249438 -0.00462465 -0.0636319 0.000656 -2.42323 -0.139235 0.949951 2650 
2212 1 -0.0272514 -0.0346723 -0.0626782 0.000656 -1.54124 -0.134537 0.670105 2650 
3582 1 -0.0287729 -0.0321197 -0.0625871 0.000116 -1.2615 0.000519908 0.579946 2650 
2775 1 -0.0269394 -0.0031844 -0.0630652 0.000423 -1.51224 0.430027 0.64598 2650 
4362 1 -0.0292512 -0.000840934 -0.0623646 0.000116 -2.48292 -0.663116 1.11438 2650 
1924 1 -0.0284103 -0.000504913 -0.0624164 0.000423 -2.23635 -0.0367398 1.01793 2650 
1012 1 -0.0294548 -0.0380619 -0.0619303 0.000423 -1.34614 -0.273657 0.640242 2650 
908 1 -0.0298961 -0.0373444 -0.0617185 0.000423 -1.33303 -0.265691 0.645712 2650 
2340 1 -0.0285502 -0.0375275 -0.0623525 0.000423 -1.34674 -0.220836 0.616653 2650 
3881 1 -0.0288847 -0.0241315 -0.0621983 0.000423 -1.26482 -0.0644789 0.587381 2650 
311 1 -0.0296079 -0.0218802 -0.0621964 0.000116 -1.2735 0.102954 0.606234 2650 
1938 1 -0.0307223 -0.0137546 -0.0616536 0.000116 -2.18297 -0.395492 1.08778 2650 
3041 1 -0.0305129 -0.0104305 -0.0617575 0.000116 -2.38896 -0.246112 1.18033 2650 
2355 1 -0.0290854 -0.00329611 -0.0621047 0.000423 -2.35566 -0.114739 1.10322 2650 
4007 1 -0.0305296 -0.00214517 -0.0617492 0.000116 -2.41402 -0.00440782 1.19352 2650 
1161 1 -0.0307679 -0.0014406 -0.0616308 0.000116 -1.97508 -0.274756 0.986019 2650 
2717 1 -0.0314009 -0.0131683 -0.0613107 0.000116 -2.40517 -0.302359 1.23183 2650 
1202 1 -0.0310964 -0.01038 -0.0615485 4.2e-05 -2.33564 -0.197116 1.18004 2650 
626 1 -0.0318003 -0.00671618 -0.0611045 0.000116 -2.84092 -0.157842 1.47849 2650 
1296 1 -0.0330498 -0.0116471 -0.0604378 0.000116 -1.75956 0.028584 0.962198 2650 
1312 1 -0.0344185 -0.0418678 -0.0597543 4.2e-05 -0.060762 -0.788311 0.034999 2650 
2112 1 -0.0339984 -0.0208191 -0.0595572 0.000423 -1.71479 -0.32249 0.978894 2650 
871 1 -0.0343485 -0.016919 -0.0597946 4.2e-05 -1.96631 0.238059 1.12953 2650 
1968 1 -0.0342894 -0.00463399 -0.0597433 0.000116 -0.96264 0.212883 0.552503 2650 
1612 1 -0.0351756 -0.000505095 -0.0592258 0.000116 -1.47475 0.35095 0.875887 2650 
336 1 -0.0351958 -0.0282762 -0.0585872 0.000656 -1.55259 -0.0630089 0.932704 2650 
4106 1 -0.0349411 -0.0136818 -0.0590091 0.000423 -1.85549 -0.228193 1.09869 2650 
1119 1 -0.0356516 -0.0125064 -0.0585825 0.000423 -1.85309 -0.0294854 1.12774 2650 
1528 1 -0.0363437 -0.0024929 -0.0585163 0.000116 -1.30549 0.273526 0.810819 2650 
2396 1 -0.0363233 -0.000119984 -0.058529 0.000116 -1.60208 0.00704271 0.982418 2650 
3887 1 -0.0363415 -0.0372635 -0.058157 0.000423 0.405325 0.0440989 -0.253282 2650 
2865 1 -0.0361205 -0.027488 -0.0580217 0.000656 -1.56898 -0.0970274 0.976741 2650 
2131 1 -0.0367606 -0.0249362 -0.0578931 0.000423 -1.48829 0.345486 0.945025 2650 
2429 1 -0.0355885 -0.00994064 -0.0583495 0.000656 -1.62265 0.562425 0.989685 2650 
378 1 -0.0363723 -0.00405895 -0.0581378 0.000423 -1.37585 0.163824 0.860763 2650 
4377 1 -0.0370613 -0.00361346 -0.0581288 4.2e-05 -2.07713 0.0601878 1.58581 2650 
50 1 -0.0368902 -0.00251655 -0.0578106 0.000423 -1.79619 -0.132834 1.14619 2650 
1481 1 -0.0361949 -0.00295023 -0.0582484 0.000423 -1.5118 0.369476 0.939417 2650 
3479 1 -0.0368419 -0.000147153 -0.058207 0.000116 -1.55639 -0.0326947 0.873076 2650 
3516 1 -0.0361456 -0.000676335 -0.058006 0.000656 -1.79993 0.0388266 1.1216 2650 
1419 1 -0.0385132 -0.033282 -0.0571118 0.000116 -1.66376 -1.30784 1.12195 2650 
286 1 -0.0381577 -0.0299043 -0.0573499 0.000116 -1.01032 -0.662677 0.672214 2650 
3418 1 -0.0383734 -0.0258903 -0.0568368 0.000423 -0.919964 0.163506 0.621114 2650 
3543 1 -0.0381479 -0.0211881 -0.0569496 0.000423 0.671702 -0.191989 0.158952 2650 
2023 1 -0.037338 -0.00598353 -0.0575224 0.000423 -1.26764 -0.228036 0.822831 2650 
2148 1 -0.0380865 -0.00161495 -0.0573972 0.000116 -1.97651 0.0237738 1.31153 2650 
4249 1 -0.0379357 -0.000547701 -0.057497 0.000116 -1.15316 0.528838 0.76084 2650 
2010 1 -0.0373422 -0.000466936 -0.0575197 0.000423 -1.84547 -0.0151237 1.19809 2650 
2012 1 -0.0384426 -0.0429084 -0.0567901 0.000423 -0.740718 -1.67735 0.501408 2650 
1008 1 -0.0389884 -0.0193445 -0.0564168 0.000423 -0.49562 -0.199922 0.342512 2650 
1944 1 -0.0392054 -0.00614735 -0.0566389 0.000116 -2.19151 0.1005 1.51696 2650 
4101 1 -0.0384375 -0.00328544 -0.0567936 0.000423 -1.88452 0.135373 1.27543 2650 
379 1 -0.0392327 -0.00209599 -0.0562472 0.000423 -1.23413 -0.0836796 0.860811 2650 
4006 1 -0.0390045 -0.00143852 -0.0567774 0.000116 -1.31174 0.1367 0.901126 2650 
3785 1 -0.0393478 -0.000477508 -0.05654 0.000116 -1.70217 -0.163081 1.18459 2650 
2728 1 -0.0400513 -0.0255451 -0.0560439 0.000116 0.560891 -0.685156 -0.400835 2650 
1404 1 -0.040917 -0.0127622 -0.055415 0.000116 -0.578509 -0.427016 0.427156 2650 
1996 1 -0.040432 -0.00394936 -0.0553914 0.000423 -1.85101 -0.00152765 1.35111 2650 
3390 1 -0.0408138 -0.00357499 -0.055491 0.000116 -1.09778 -0.453383 0.807422 2650 
2421 1 -0.0395028 -0.00352608 -0.055774 0.000656 -1.85186 -0.0243463 1.31161 2650 
1787 1 -0.0402089 -0.00104118 -0.0555535 0.000423 -1.47455 -0.0782755 1.06726 2650 
827 1 -0.0412221 -0.0337881 -0.0551885 0.000116 4.75221 3.40475 -3.54958 2650 
1568 1 -0.0407974 -0.000459917 -0.0551228 0.000423 -1.43919 0.0582978 1.06517 2650 
2905 1 -0.0418284 -0.00340095 -0.0543446 0.000423 -1.64373 0.262115 1.26516 2650 
2192 1 -0.0370372 -7.77793e-05 -0.0537654 4.2e-05 9.96273 -0.188618 1.98671 2650 
3426 1 -0.0430095 -0.0112769 -0.0534147 0.000423 -0.583901 0.0777411 0.470157 2650 
3692 1 -0.0432183 -0.00509513 -0.0536395 0.000116 -1.38471 -0.620062 1.11569 2650 
505 1 -0.0433391 -0.00188444 -0.053542 0.000116 -1.58969 0.0832357 1.28676 2650 
1136 1 -0.0439933 -0.0314626 -0.0526074 0.000423 -0.953344 -0.226048 0.797241 2650 
3066 1 -0.044811 -0.0146775 -0.0524136 4.2e-05 -1.57149 -0.271374 1.34355 2650 
2296 1 -0.0448683 -0.00621972 -0.0522515 0.000116 -2.14025 -0.00843824 2.03267 2650 
3337 1 -0.0444827 -0.00582937 -0.0521943 0.000423 -1.17111 -0.317173 0.989079 2650 
2877 1 -0.0443592 -0.00415692 -0.0522992 0.000423 -1.19166 -0.0171558 1.01074 2650 
3963 1 -0.0449975 -0.0153071 -0.0517511 0.000423 -1.67271 -0.233649 1.45442 2650 
158 1 -0.0452027 -0.00888103 -0.051572 0.000423 -1.75654 0.133308 1.53961 2650 
1987 1 -0.0449876 -0.00390688 -0.0514521 0.000656 -1.15429 0.155214 1.00926 2650 
3957 1 -0.0449669 -0.00158652 -0.0514701 0.000656 -1.17939 0.385114 1.03037 2650 
4212 1 -0.0461212 -0.00829679 -0.0507522 0.000423 -1.75878 0.0184388 1.5983 2650 
3986 1 -0.0458001 -0.00751577 -0.0510421 0.000423 -1.57823 -0.0287315 1.41615 2650 
3043 1 -0.0462538 -0.00687265 -0.0510451 0.000116 -2.27344 0.00837286 2.06005 2650 
2703 1 -0.0468919 -0.0298528 -0.0504596 0.000116 -1.84381 -1.18245 1.71344 2650 
2998 1 -0.0463903 -0.0176601 -0.0505063 0.000423 -1.38247 -0.248 1.2698 2650 
3603 1 -0.0473666 -0.0134753 -0.0500142 0.000116 -1.60619 -0.276257 1.52116 2650 
3093 1 -0.0117633 -0.00726967 -0.0505395 0.000423 -1.7571 -0.39537 -7.69255 2650 
3508 1 -0.0482069 -0.00167319 -0.0493082 4.2e-05 -1.99901 -0.0953213 1.95436 2650 
3219 1 -0.0473964 -0.000470671 -0.0495634 0.000423 -1.38659 -0.210395 1.32587 2650 
3331 1 -0.0484634 -0.0342321 -0.0485206 0.000423 -1.18824 -0.342988 1.18684 2650 
3440 1 -0.0486898 -0.0250721 -0.0482934 0.000423 -1.14477 0.0729097 1.15417 2650 
2353 1 -0.0480774 -0.0238174 -0.0489031 0.000423 -1.15783 0.180664 1.13828 2650 
1634 1 -0.0485876 -0.0170067 -0.0488289 0.000116 -2.27304 -0.153483 2.2618 2650 
4254 1 -0.0486733 -0.0113594 -0.0487435 0.000116 -1.18847 -0.226513 1.18676 2650 
542 1 -0.048621 -0.010877 -0.0488999 4.2e-05 -1.59988 0.757808 1.59075 2650 
2711 1 -0.0495324 -0.0146502 -0.0478703 0.000116 1.05152 0.149622 -1.08803 2650 
4094 1 -0.0491057 -0.00314014 -0.0478705 0.000423 -1.45487 0.0315767 1.49241 2650 
991 1 -0.0493634 -0.00156119 -0.04727 0.000656 -1.39714 -0.06318 1.45901 2650 
2532 1 -0.0502781 -0.0027869 -0.046296 0.000656 -1.5063 -0.043494 1.63587 2650 
1587 1 -0.0505774 -0.000422979 -0.0463128 0.000423 -1.40627 7.26184e-08 1.53576 2650 
3691 1 -0.0518097 -0.000513989 -0.0453958 0.000116 -1.22181 -0.0368943 1.39444 2650 
2626 1 -0.0519707 -0.000558657 -0.0452113 0.000116 -1.18461 -0.0171657 1.36171 2650 
693 1 -0.0520486 -0.0105579 -0.0446531 0.000423 -0.877299 -0.19733 1.02435 2650 
2691 1 -0.0523399 -0.00984094 -0.0443112 0.000423 -0.8714 -0.188139 1.02773 2650 
1649 1 -0.052339 -0.00771552 -0.0448981 4.2e-05 -1.24676 -0.03999 1.45338 2650 
4325 1 -0.0518251 -0.00118052 -0.0449122 0.000423 -1.32229 -0.0637095 1.52582 2650 
8 1 -0.0527251 -0.0118928 -0.0434887 0.000656 -1.45934 -0.141656 1.76941 2650 
3693 1 -0.0532901 -0.0112409 -0.0436484 0.000116 -1.43471 -0.458042 1.75163 2650 
197 1 -0.0531157 -0.0113255 -0.0438605 0.000116 -1.17593 -0.0854729 1.42405 2650 
3585 1 -0.0534401 -0.00514232 -0.0434647 0.000116 -0.789114 0.113457 0.97022 2650 
2275 1 -0.0539492 -0.00615981 -0.0428311 0.000116 -1.28175 -0.223667 1.61447 2650 
1336 1 -0.0542954 -0.0333097 -0.0418922 0.000423 -0.875732 -0.155012 1.13501 2650 
353 1 -0.0542605 -0.00269505 -0.0419374 0.000423 -1.28245 0.0752295 1.6593 2650 
844 1 -0.0552451 -0.0368237 -0.0411461 0.000116 3.71787 1.16398 -4.99181 2650 
3393 1 -0.0550313 -0.0249237 -0.0415544 4.2e-05 1.41471 0.801234 -1.87352 2650 
295 1 -0.0551699 -0.00400277 -0.0412468 0.000116 -0.88718 0.0262123 1.18665 2650 
2028 1 -0.0544658 -0.00371713 -0.0416705 0.000423 -0.831287 0.231382 1.08654 2650 
437 1 -0.054939 -0.000718418 -0.0416763 4.2e-05 -0.748362 0.174723 0.986515 2650 
1107 1 -0.0552316 -0.0447875 -0.0402576 0.000656 -0.431169 -0.575753 0.591545 2650 
843 1 -0.0558375 -0.00308635 -0.0403386 0.000116 -1.71113 0.521724 2.36858 2650 
333 1 -0.0553008 -0.0282717 -0.0401624 0.000656 -0.96154 -0.392853 1.32397 2650 
3181 1 -0.0555862 -0.000286865 -0.040013 4.2e-05 3.14607 0.183896 1.57214 2650 
3376 1 -0.0565537 -0.0347755 -0.0393282 0.000116 3.3102 1.55439 -4.76004 2650 
1249 1 -0.0563114 -0.00340348 -0.0391404 0.000423 -0.921473 -0.100032 1.32573 2650 
3850 1 -0.0567618 -0.00531985 -0.0384843 0.000423 -0.953767 -0.157023 1.40674 2650 
2765 1 -0.0572375 -0.0260708 -0.0377732 0.000423 0.573095 -0.594653 -0.868407 2650 
555 1 -0.0571696 -0.00504897 -0.0374545 0.000656 -0.825369 -0.0984715 1.25982 2650 
1443 1 -0.0575425 -0.0019386 -0.037307 0.000423 -0.95825 -0.0669917 1.47801 2650 
1458 1 -0.0576077 -0.00105428 -0.0372062 0.000423 -0.95416 -0.0735761 1.47724 2650 
1056 1 -0.0577009 -0.000685197 -0.0376249 0.000116 -1.07575 0.231594 1.64977 2650 
34 1 -0.0579539 -0.00250291 -0.0366647 0.000423 -0.912963 -0.0494432 1.44307 2650 
3399 1 -0.0590077 -0.0314693 -0.0356833 4.2e-05 -1.1793 -0.792031 1.95015 2650 
3514 1 -0.0581157 -0.0269486 -0.0359689 0.000656 -0.52751 -0.090117 0.85231 2650 
1606 1 -0.0585951 -0.00604843 -0.0362165 0.000116 -0.135399 -0.21431 0.219064 2650 
42 1 -0.0586375 -0.00223847 -0.035561 0.000423 -0.924258 -0.0362278 1.52403 2650 
1436 1 -0.058061 -0.00146911 -0.0360573 0.000656 -0.918675 -0.0680173 1.47929 2650 
245 1 -0.0592743 -0.00205303 -0.0344893 0.000423 -0.906504 -0.0735967 1.55794 2650 
1135 1 -0.0595657 -0.000530044 -0.0339834 0.000423 -0.888524 -0.00987716 1.55739 2650 
2476 1 -0.060037 -0.0176723 -0.0337725 0.000116 -1.07363 -0.637953 1.90858 2650 
1447 1 -0.0600507 -0.0138525 -0.0331188 0.000423 -0.858223 -0.421384 1.55612 2650 
2738 1 -0.0599502 -0.0232028 -0.0316664 4.2e-05 0.936486 -0.927674 -5.23498 2650 
886 1 -0.0603122 -0.0225627 -0.0321502 0.000656 -0.933589 -0.355057 1.75137 2650 
1046 1 -0.061794 -0.0266165 -0.0304388 0.000116 -0.382796 -1.64498 0.777115 2650 
3918 1 -0.0626169 -0.0296263 -0.0287079 0.000116 2.57828 2.31154 -5.6237 2650 
1863 1 -0.0630635 -0.0315831 -0.0278964 4.2e-05 2.19991 -0.507634 -4.97319 2650 
3840 1 -0.0628442 -0.0181537 -0.0268664 0.000656 -0.51161 0.247766 1.19673 2650 
159 1 -0.0177541 -0.01297 -0.0273887 0.000423 -2.42008 -1.04447 -3.71975 2650 
2130 1 -0.0632597 -0.0229218 -0.0264794 0.000423 -0.926515 -0.758031 2.21346 2650 
3143 1 -0.0640833 -0.0332001 -0.0252656 0.000116 -0.349867 -0.720408 0.887401 2650 
19 1 -0.0643229 -0.0249404 -0.0237804 0.000423 0.0659798 0.113314 -0.178467 2650 
2779 1 -0.0655396 -0.0171449 -0.0201868 0.000423 -0.576414 -0.294409 1.87142 2650 
1638 1 -0.0659564 -0.00233704 -0.0198688 0.000116 -0.594263 -0.220732 1.97271 2650 
577 1 -0.0657719 -0.0440197 -0.0194167 0.000423 -0.322684 -0.418132 1.09305 2650 
4084 1 -0.0661122 -0.00168724 -0.0182245 0.000423 -0.52552 -0.194437 1.9064 2650 
2246 1 -0.066015 -0.00042634 -0.0185732 0.000423 -0.366231 0.0419929 1.30375 2650 
2238 1 -0.0661724 -0.00310089 -0.0180043 0.000423 -0.340302 -0.0932001 1.25074 2650 
2282 1 -0.0665776 -0.0009397 -0.0176763 0.000116 -0.465028 -0.338762 1.75153 2650 
3375 1 -0.0655719 -0.00165535 -0.017728 0.000116 2.05585 -5.15707 2.80315 2650 
3348 1 -0.0667049 -0.00340112 -0.0171896 0.000116 -0.190762 -0.173912 0.740258 2650 
3314 1 -0.0664166 -0.00274897 -0.0170818 0.000423 -0.138959 0.0526275 0.540292 2650 
606 1 -0.000183 0.00154836 -0.016592 0.000116 0 -0.011753 0 2650 
2520 1 -0.000276913 0.00488958 -0.0167561 4.2e-05 0.00318265 0.000380138 0.00682554 2650 
3165 1 -0.000715834 0.0164002 -0.016615 0.000116 -0.25754 0.145334 -0.00310824 2650 
2563 1 -0.0666803 -0.00678808 -0.0160215 0.000423 -0.553595 -0.0422277 2.30403 2650 
2898 1 -0.0665959 -0.0032956 -0.0163685 0.000423 -0.132635 0.039432 0.539631 2650 
2013 1 -0.00296612 0.00305132 -0.0159016 0.000423 -0.00154235 0.00221798 0.00156406 2650 
2301 1 -0.0043136 0.0035484 -0.0161562 4.2e-05 -0.00116259 -0.0070103 0.00459775 2650 
1679 1 -0.00416674 0.00458303 -0.0158269 0.000423 -0.00453172 0.0157125 0.00260684 2650 
2283 1 -0.00352741 0.00428572 -0.0163967 0.000116 -0.00010552 0.00956354 0.000789399 2650 
4227 1 -0.000476901 0.00406079 -0.0165159 0.000116 0.00143204 -0.0228975 -0.0290312 2650 
3934 1 -0.001977 0.00631036 -0.016218 0.000116 0 -0.011753 0 2650 
978 1 -0.00258114 0.00633933 -0.0163885 0.000116 0.0180122 -0.00353228 -0.00159853 2650 
2313 1 -0.00353496 0.00780106 -0.0158372 0.000656 0.00731771 0.00227366 0.0200918 2650 
938 1 -0.00149538 0.00991598 -0.0158541 0.000116 -0.00119823 0.000558801 -0.00633771 2650 
302 1 -0.000510492 0.00950653 -0.0160826 0.000116 -0.0434127 0.0256721 -0.0191129 2650 
1483 1 -0.000466273 0.0102139 -0.0164023 0.000423 -0.00134867 0.0112238 -0.0085204 2650 
3007 1 -0.00272483 0.0111747 -0.0159574 0.000423 -0.00754521 0.0118776 -0.00214285 2650 
371 1 -0.00037916 0.0115884 -0.0162714 0.000423 0.00531915 0.0198137 0.0114896 2650 
188 1 -0.00273826 0.0128904 -0.016248 0.000116 -0.0148612 0.0228045 0.00418427 2650 
2182 1 -0.0015416 0.0129242 -0.016518 0.000116 -0.00770269 0.0448602 -0.0445042 2650 
2713 1 -0.00071359 0.0148716 -0.0160548 0.000116 0.00037122 0.035974 0.00535071 2650 
715 1 -0.0668532 -0.0164765 -0.0152841 0.000423 -0.499952 -0.638393 2.18681 2650 
223 1 -0.0665976 -0.0133239 -0.0153609 0.000656 -0.475907 -0.338635 2.06331 2650 
1914 1 -0.0668774 -0.00637524 -0.0151777 0.000423 -0.165643 0.591631 0.729873 2650 
1763 1 -0.00427075 -0.00192441 -0.0152477 0.000656 0.0110508 0.03864 0.047043 2650 
30 1 -0.00186358 -0.0017299 -0.015637 0.000423 -0.0139928 -0.0214008 0.00726417 2650 
3599 1 -0.000988367 -0.00156484 -0.0152821 0.000116 0.0260231 -0.00977207 -0.00117121 2650 
2399 1 -0.002418 0.00176236 -0.015541 0.000116 0 -0.011753 0 2650 
2474 1 -0.000521451 0.00233049 -0.0151644 0.000423 0.0307748 -0.0136667 -0.043701 2650 
3637 1 -0.00522985 0.00389883 -0.0154839 0.000423 -0.00704251 0.0124689 0.006236 2650 
1611 1 -0.00294137 0.00466066 -0.0157529 0.000116 0.0513704 -0.0152435 0.0155029 2650 
889 1 -0.00191896 0.00420872 -0.0152753 0.000656 0.0239239 0.0130736 -0.0545072 2650 
3365 1 -0.00203834 0.00521908 -0.0156918 0.000116 0.0120999 0.0333262 -0.0498495 2650 
1192 1 -0.00737751 0.00604747 -0.0151628 0.000116 0.00510585 0.0133553 0.012363 2650 
3830 1 -0.006879 0.00786236 -0.015411 4.2e-05 0 -0.011753 0 2650 
2438 1 -0.00610215 0.00725116 -0.0151186 0.000423 -0.00472103 -0.000373669 -0.00125399 2650 
2726 1 -0.000339458 0.00884418 -0.0150109 0.000116 -0.00741369 0.00988612 -0.041436 2650 
2781 1 -0.00602787 0.0109967 -0.0152047 0.000423 0.00977627 0.0105103 0.0120467 2650 
3150 1 -0.00169062 0.0103508 -0.015125 0.000116 -0.0182263 -0.0087302 -0.0269448 2650 
70 1 -0.00415972 0.0123282 -0.0157204 0.000116 0.0560864 0.0328811 0.00597028 2650 
2793 1 -0.00103348 0.0124938 -0.0152171 0.000423 0.00400332 0.0260717 0.000754087 2650 
3644 1 -0.00121302 0.0134026 -0.0150976 0.000423 -0.00424564 0.0328325 0.0133159 2650 
93 1 -0.00742283 0.0188767 -0.0151232 0.000116 0.0683401 0.0488097 -0.0337926 2650 
2466 1 -0.00465534 0.0217891 -0.0152731 0.000423 0.0618857 0.0331724 -0.00268308 2650 
2585 1 -0.00121071 0.0253889 -0.0151835 0.000116 -0.0221426 0.0759057 0.0070692 2650 
1717 1 -0.00359286 0.0288304 -0.0150596 0.000116 -0.014717 0.0706098 -0.0348682 2650 
4234 1 -0.00495172 0.0325414 -0.015364 0.000116 0.00512064 0.0508026 0.0366661 2650 
66 1 -0.00747734 0.0339727 -0.0151101 0.000116 -0.20355 -0.0161115 0.0834683 2650 
2863 1 -0.00192062 0.0536381 -0.0150129 0.000656 0.0828395 0.112062 0.0238951 2650 
429 1 -0.0673875 -0.0138953 -0.014281 0.000116 -0.664496 -0.208501 3.13554 2650 
4097 1 -0.0670421 -0.0097098 -0.0144329 0.000423 -0.506059 -0.0404978 2.35069 2650 
4244 1 -0.00207361 -0.00289259 -0.0145271 0.000116 -0.0436806 -0.00994679 0.0125723 2650 
1053 1 -0.007469 -0.00207964 -0.014946 0.000116 0 -0.011753 0 2650 
736 1 -0.00774127 -0.00126807 -0.0145884 0.000116 -0.0307431 -0.0170391 0.0144389 2650 
3576 1 -0.00223217 -0.00142073 -0.0145748 0.000116 0.0561059 0.00120064 -0.0311085 2650 
56 1 -0.0670031 -0.000687326 -0.0146094 0.000423 -0.262953 -0.318211 1.58168 2650 
509 1 -0.00770165 -0.000599412 -0.0145201 0.000116 -0.00480979 -0.0076817 0.0108723 2650 
857 1 -0.00570241 0.00283424 -0.0148461 0.000116 -0.0623021 0.0193526 0.00200378 2650 
4300 1 -0.000130269 0.0040638 -0.0147765 0.000423 0.0101839 0.00179298 -0.0226263 2650 
581 1 -0.00561198 0.00807793 -0.0144932 0.000423 0.00044719 0.0010883 0.00185987 2650 
1827 1 -0.00451916 0.00830497 -0.0146331 0.000116 0.0291735 -0.0399614 -0.0319233 2650 
233 1 -0.00362287 0.00888751 -0.0146268 0.000423 0.0114684 -0.00558491 0.0116559 2650 
289 1 -0.00331891 0.00974779 -0.0142156 0.000116 -0.00850769 0.000708308 0.0302001 2650 
86 1 -0.00445933 0.0105442 -0.0149574 0.000116 -0.0196067 0.0126222 0.000798653 2650 
3500 1 -0.00405013 0.0107759 -0.0143333 4.2e-05 -0.0484689 0.00233787 0.0298831 2650 
2969 1 -0.00245636 0.0105599 -0.0149873 0.000656 -0.00667616 0.014076 0.00443217 2650 
3838 1 -0.00535007 0.0133174 -0.0144107 0.000656 0.0059045 0.0308137 -0.0288407 2650 
1228 1 -0.00209966 0.0127873 -0.0148503 0.000423 -0.0165199 0.0339339 0.00467854 2650 
2924 1 -0.00771138 0.0158279 -0.0147821 0.000116 -0.0500795 0.0331408 0.0243033 2650 
3051 1 -0.00741384 0.021217 -0.0146195 0.000116 0.128093 -0.215655 -0.111448 2650 