ITEM: TIMESTEP
8778774
ITEM: NUMBER OF ATOMS
4317
ITEM: BOX BOUNDS ff ff ff
-0.15 0.15
-0.15 0.06
-0.15 0.15
ITEM: ATOMS id type x y z radius vx vy vz density 
3688 1 -0.004865 -0.0584472 -0.0687121 0.000116 -3.45999 0.626989 0.244977 2650 
2820 1 -0.00898394 -0.0507423 -0.0682958 0.000116 1.56787 0.889565 -0.206245 2650 
2081 1 -0.0109696 -0.0471699 -0.06808 4.2e-05 14.0946 -0.120422 -2.27104 2650 
3974 1 -0.016502 -0.0590872 -0.066563 0.000423 0.60422 -0.0946036 -0.149796 2650 
1050 1 -0.0184561 -0.0470228 -0.0663656 0.000116 -1.5774 -3.9194 0.43867 2650 
2296 1 -0.0197022 -0.0617908 -0.0655568 0.000116 8.67008 0.0177214 -1.77615 2650 
4036 1 -0.0248936 -0.0536803 -0.0642287 0.000116 0.769977 -0.083988 -0.298425 2650 
1081 1 -0.0267012 -0.0507887 -0.0634986 0.000116 -0.737601 -0.196838 0.310162 2650 
758 1 -0.0291979 -0.0596813 -0.0623899 0.000116 -2.38385 -0.504796 1.11562 2650 
1058 1 -0.0192051 -0.0621697 -0.0613238 0.000116 6.04614 0.294662 -0.829723 2650 
1856 1 -0.0340357 -0.0566618 -0.0598882 0.000116 0.331253 0.132758 -0.188258 2650 
1934 1 -0.0342562 -0.0625491 -0.0575792 0.000116 12.3141 0.156002 -1.16525 2650 
3691 1 -0.0252118 -0.0608487 -0.0558831 0.000116 10.5621 0.833011 -7.58484 2650 
935 1 -0.0423971 -0.0505342 -0.0539021 0.000423 1.14192 -0.339048 -0.898185 2650 
1290 1 -0.0454805 -0.0604044 -0.0517353 0.000116 1.11933 0.411578 -0.984001 2650 
2201 1 -0.0456385 -0.0562778 -0.0508757 0.000656 1.70769 -0.18465 -1.5319 2650 
3619 1 -0.0481694 -0.0526597 -0.0493449 4.2e-05 1.13541 0.421988 -1.10836 2650 
854 1 -0.0494897 -0.0560084 -0.0479144 0.000116 0.984954 -0.6208 -1.01734 2650 
3038 1 -0.0502215 -0.0541494 -0.0471469 0.000116 3.5899 1.21085 -3.82402 2650 
3000 1 -0.0514388 -0.0601728 -0.0453541 0.000423 -0.544593 -0.630157 0.617656 2650 
51 1 -0.0522503 -0.0456969 -0.0444168 0.000423 0.543419 -0.0380183 -0.639259 2650 
1471 1 -0.0541718 -0.0620823 -0.0418208 0.000423 2.0593 -0.00128331 -1.73686 2650 
2965 1 -0.0554149 -0.062756 -0.0410414 4.2e-05 7.23858 -0.0060142 -9.77368 2650 
3260 1 -0.0564403 -0.0618629 -0.0394906 0.000116 0.320833 -1.5756 -0.458538 2650 
2829 1 -0.0589195 -0.0626655 -0.0356708 0.000116 -1.05654 0.654392 1.71899 2650 
4139 1 -0.0615495 -0.0572372 -0.0309304 0.000116 0.548325 -0.168071 -1.09113 2650 
323 1 -0.0652979 -0.0539198 -0.0221676 4.2e-05 5.63433 0.662844 -16.5968 2650 
390 1 -0.0664036 -0.0527846 -0.0183189 0.000116 0.0627645 0.962672 -0.227513 2650 
3054 1 -0.0672713 -0.0481178 -0.0148187 0.000116 -0.166287 -1.0742 0.754878 2650 
3139 1 -0.0674644 -0.0536533 -0.0139133 0.000116 0.55027 -1.25855 -2.66821 2650 
3547 1 -0.0672543 -0.0457925 -0.0134092 0.000423 -0.0913228 0.254771 0.458034 2650 
3586 1 -0.0679925 -0.0551295 -0.0110476 0.000116 0.348999 0.398869 -2.14792 2650 
3753 1 -0.0678425 -0.0617603 -0.0100171 0.000423 0.047122 0.0356315 -0.268253 2650 
1816 1 -0.0683385 -0.0591694 -0.00865321 0.000116 0.0530993 -0.0282374 -0.41935 2650 
1316 1 -0.0684594 -0.0565926 -0.00827769 4.2e-05 0.489572 0.702058 -4.04893 2650 
3391 1 -0.0675043 -0.0493691 -0.00103765 4.2e-05 -0.547351 -1.4445 -6.35472 2650 
2072 1 -0.0688728 -0.0606848 0.00124999 0.000116 0.00626073 -1.42514 0.344958 2650 
1231 1 -0.0685364 -0.0507146 0.00238815 0.000423 0.0396333 -0.171753 1.13742 2650 
2848 1 -0.0689107 -0.0535569 0.00255333 4.2e-05 -0.00244297 0.0450743 -0.0659322 2650 
3090 1 -0.068433 -0.0593399 0.00445811 0.000423 0.0656427 0.0635511 1.00763 2650 
1377 1 -0.0665659 -0.0533592 0.0177201 0.000116 -0.16418 1.24262 -0.616747 2650 
4376 1 -0.064498 -0.061541 0.024397 4.2e-05 -0.204483 -0.0654575 -0.540588 2650 
3088 1 -0.0625781 -0.062377 0.0246444 0.000423 -2.21817 -5.54743e-08 -9.20519 2650 
518 1 -0.058319 -0.062004 0.0251819 0.000116 -2.82139 -0.131708 -8.46839 2650 
1185 1 -0.0634881 -0.061037 0.0252752 0.000116 -3.30923 0.532563 -9.62821 2650 
239 1 -0.0630698 -0.0557776 0.0269287 0.000423 0.589078 0.384236 1.37968 2650 
843 1 -0.0624272 -0.0498998 0.0291182 0.000116 0.23181 -0.02467 0.496983 2650 
1630 1 -0.0613279 -0.0463038 0.0313673 0.000116 0.359065 0.37747 0.70203 2650 
1784 1 -0.0584558 -0.0546343 0.0358591 0.000423 0.528587 -0.233559 0.861678 2650 
394 1 -0.0585532 -0.0484347 0.0362842 0.000116 0.779484 -0.474873 1.25788 2650 
2833 1 -0.0570152 -0.055412 0.038656 0.000116 -0.378525 -1.08525 -0.5583 2650 
849 1 -0.0563379 -0.0458793 0.0396367 0.000116 -0.286009 -1.2528 -0.406521 2650 
856 1 -0.055054 -0.0494775 0.0414015 0.000116 -1.92066 1.01541 -2.55401 2650 
3891 1 -0.0514152 -0.0571317 0.0453808 0.000423 0.158701 -0.639432 0.179804 2650 
3372 1 -0.0505474 -0.0480341 0.0467972 0.000116 -2.13826 -0.769697 -2.30961 2650 
1030 1 -0.0491867 -0.0494016 0.0477872 0.000423 1.33624 0.0380763 1.37537 2650 
800 1 -0.0475245 -0.055755 0.0494406 0.000423 1.75747 -0.871673 1.68936 2650 
3549 1 -0.045147 -0.0598424 0.0516207 0.000423 -0.983675 0.125496 -0.860314 2650 
4025 1 -0.043957 -0.0514408 0.0530359 0.000116 -1.37041 -0.527606 -1.13582 2650 
578 1 -0.0413512 -0.0487091 0.0547086 0.000423 -1.71368 0.220528 -1.29528 2650 
646 1 -0.0329471 -0.0616157 0.0604921 0.000116 -9.844 0.109936 -5.25379 2650 
1865 1 -0.0324794 -0.0546718 0.0607611 4.2e-05 4.4324 2.01989 3.46934 2650 
3566 1 -0.0322268 -0.0452952 0.0608807 0.000116 -1.72072 -0.776263 -0.910853 2650 
3933 1 -0.0295796 -0.0519791 0.0622099 0.000116 0.7872 0.00678223 0.374299 2650 
2166 1 -0.0247033 -0.0500257 0.0643022 0.000116 -4.27857 -1.01508 -1.64372 2650 
4345 1 -0.0220321 -0.0588521 0.0652657 0.000116 -0.318703 0.503319 -0.107586 2650 
1278 1 -0.0213111 -0.0567354 0.0655047 0.000116 -8.80319 0.56251 -2.864 2650 
838 1 -0.00314472 -0.0465703 0.0688123 0.000116 -2.52338 0.753634 -0.115318 2650 
3037 1 -0.00284567 -0.0221963 -0.0688253 0.000116 -3.44063 -0.802196 0.142257 2650 
1638 1 -0.00477165 -0.00852166 -0.0687187 0.000116 -0.600274 0.30163 0.0416815 2650 
3926 1 -0.00476334 -0.00140337 -0.0687192 0.000116 4.56305 0.968587 -0.316294 2650 
1849 1 -0.00908202 -0.0300654 -0.0682828 0.000116 -1.66729 -1.36988 0.221759 2650 
739 1 -0.00908632 -0.0262187 -0.0682822 0.000116 -1.35695 -1.13986 0.180569 2650 
1336 1 -0.00262072 -0.0257995 -0.068528 0.000423 -1.42421 -0.198135 0.054466 2650 
1572 1 -0.00275935 -0.0226988 -0.0685226 0.000423 -3.20252 -0.883281 0.128963 2650 
1136 1 -0.00380738 -0.0199558 -0.0684723 0.000423 -1.27615 -0.464541 0.0709602 2650 
4084 1 -0.00179763 -0.0147772 -0.0685545 0.000423 -2.06183 0.56539 0.054065 2650 
56 1 -0.00817639 -0.0138264 -0.0680889 0.000423 -2.68163 0.0850367 0.322021 2650 
3425 1 -0.00623892 -0.0136722 -0.0682937 0.000423 -2.48147 0.311776 0.226693 2650 
3143 1 -0.00958963 -0.00862919 -0.0682134 0.000116 -3.99921 0.0493725 0.562221 2650 
2779 1 -0.00467982 -0.00604517 -0.0684182 0.000423 -2.28852 0.146621 0.156535 2650 
42 1 -0.00831084 -0.00483385 -0.0680731 0.000423 -1.39 0.680862 0.182346 2650 
555 1 -0.00687255 -0.00509732 -0.0679995 0.000656 -0.90507 0.0243414 0.0819109 2650 
1046 1 -0.00636883 -0.00492101 -0.0685709 0.000116 -0.421801 0.594563 0.353634 2650 
2691 1 -0.000555747 -0.00179212 -0.0685758 0.000423 -1.53634 -0.0838396 0.0124507 2650 
245 1 -0.000777554 -0.000432541 -0.0685736 0.000423 -1.21917 -0.031893 0.0138018 2650 
3840 1 -0.00816474 -0.0283773 -0.0678567 0.000656 -1.71121 0.499401 0.205898 2650 
1716 1 -0.00188901 -0.0221439 -0.0675239 0.000116 0.831059 -0.987798 -0.0657868 2650 
3357 1 -0.00788922 -0.0198479 -0.0674495 0.000116 1.79553 0.396434 -1.61937 2650 
1961 1 -0.0147531 -0.0145511 -0.0672857 0.000116 -3.331 -0.208051 0.730357 2650 
229 1 -0.00962914 -0.0125102 -0.0676645 0.000656 -2.68856 0.137881 0.382602 2650 
2966 1 -0.0107939 -0.00834435 -0.0674885 0.000656 -2.49186 -0.241348 0.398538 2650 
223 1 -0.012537 -0.00119111 -0.0671865 0.000656 -1.9326 -0.0568781 0.360623 2650 
3946 1 -0.0151605 -0.000592843 -0.0672708 4.2e-05 -3.06372 -0.3801 0.690457 2650 
1312 1 -0.0159922 -0.011546 -0.067078 4.2e-05 3.99955 -0.856197 -0.953541 2650 
2148 1 -0.00235211 -0.000895711 -0.0668802 0.000116 -0.283775 -1.76097 -1.75267 2650 
902 1 -0.0207625 -0.0392024 -0.0653595 0.000423 -1.75048 -0.235365 0.556066 2650 
4016 1 -0.0225245 -0.0302899 -0.0650974 0.000116 4.2573 1.51636 -1.47308 2650 
3426 1 -0.0224533 -0.021302 -0.0647981 0.000423 -0.895011 0.845784 0.310132 2650 
1296 1 -0.0217578 -0.016198 -0.0653576 0.000116 -1.26783 -0.333251 0.422065 2650 
1202 1 -0.0234454 -0.0151743 -0.06485 4.2e-05 1.53419 -1.40791 -0.55466 2650 
1593 1 -0.0239027 -0.0272795 -0.0642776 0.000423 -2.16665 -0.103937 0.805704 2650 
577 1 -0.0238137 -0.0249597 -0.0643106 0.000423 -1.54947 0.114867 0.573758 2650 
1323 1 -0.0240455 -0.0238681 -0.0639766 0.000656 0.210851 -0.584792 -0.079248 2650 
817 1 -0.0237288 -0.0139726 -0.064342 0.000423 -1.45636 0.0588872 0.537094 2650 
306 1 -0.0235581 -0.00145479 -0.0646847 0.000116 -0.773761 -1.73083 0.501513 2650 
3649 1 -0.023328 -0.000904331 -0.0644884 0.000423 -1.9223 -0.0386998 0.698397 2650 
2098 1 -0.0248327 -0.0333614 -0.0636753 0.000656 -2.4481 0.126098 0.954734 2650 
3013 1 -0.0264085 -0.0278094 -0.0632893 0.000423 -0.659325 -1.3507 0.275114 2650 
1218 1 -0.0244481 -0.0264538 -0.0638239 0.000656 -2.21644 -0.147133 0.849018 2650 
1107 1 -0.0250676 -0.0224654 -0.0635831 0.000656 -1.07923 -0.60185 0.425487 2650 
3219 1 -0.0249281 -0.0208555 -0.0638869 0.000423 0.000112096 0.388151 -3.36208e-05 2650 
1987 1 -0.0244364 -0.0194659 -0.0638284 0.000656 -0.101118 0.104744 0.0387127 2650 
2605 1 -0.027207 -0.0104115 -0.0632835 0.000116 -3.27681 -0.287829 1.40877 2650 
3514 1 -0.0273961 -0.0248494 -0.0626151 0.000656 -0.657569 0.0948647 0.287707 2650 
50 1 -0.0236655 -0.020098 -0.0628217 0.000423 1.95276 0.991422 -0.167089 2650 
2246 1 -0.0270218 -0.00700579 -0.0630299 0.000423 -1.39111 -0.130854 0.596387 2650 
3399 1 -0.0315545 -0.0331209 -0.061315 4.2e-05 -0.482646 0.355753 0.248383 2650 
3096 1 -0.0311203 -0.0264242 -0.0611104 0.000423 -1.24886 -0.388011 0.635981 2650 
2192 1 -0.0313041 -0.0241891 -0.0608205 4.2e-05 6.22678 -0.706242 -0.867728 2650 
2116 1 -0.0307007 -0.0178924 -0.0613222 0.000423 -2.28346 0.241714 1.14321 2650 
1135 1 -0.0310281 -0.00722073 -0.0611572 0.000423 -1.38068 0.131244 0.700488 2650 
2019 1 -0.0318368 -0.0178752 -0.0607402 0.000423 -2.3783 -0.353309 1.24658 2650 
596 1 -0.0325437 -0.0160036 -0.0603644 0.000423 -1.74384 0.521099 0.94014 2650 
3947 1 -0.0313734 -0.0158004 -0.06072 0.000656 -2.49621 -0.0408202 1.28977 2650 
1055 1 -0.0333101 -0.00696278 -0.0602948 0.000116 -1.70472 -0.084043 0.941778 2650 
3140 1 -0.0349789 -0.0409458 -0.0593515 0.000116 -1.24481 -0.176625 0.540414 2650 
3785 1 -0.0344957 -0.0243821 -0.0595131 0.000116 -0.000470648 4.50631 -0.805821 2650 
163 1 -0.0341684 -0.00635115 -0.0594598 0.000423 -1.51981 0.413649 0.873354 2650 
1606 1 -0.0344939 -0.00356973 -0.0596254 0.000116 -2.48774 0.6893 1.43918 2650 
2238 1 -0.0338568 -0.00263987 -0.0596378 0.000423 -1.05444 0.572385 0.598613 2650 
1461 1 -0.0337612 -0.00119936 -0.059692 0.000423 -1.6902 0.473912 0.955958 2650 
2527 1 -0.0354401 -0.041052 -0.0591183 4.2e-05 5.575 -3.63811 3.39742 2650 
322 1 -0.0354904 -0.0271861 -0.059124 4.2e-05 1.28774 2.07748 -0.772992 2650 
82 1 -0.0355621 -0.011189 -0.0589946 0.000116 -1.55409 0.116608 0.936811 2650 
2827 1 -0.0306489 -0.00463465 -0.0585227 0.000116 -2.13788 -0.0992748 2.355 2650 
21 1 -0.0354634 -0.00119454 -0.0586967 0.000423 -1.25856 0.467866 0.760398 2650 
3633 1 -0.0365062 -0.0286676 -0.0580539 0.000423 -2.15573 0.306057 1.3556 2650 
3692 1 -0.037015 -0.0220832 -0.058094 0.000116 -1.15621 -0.046172 0.73669 2650 
443 1 -0.0363849 -0.0132197 -0.0578562 0.000656 -2.40743 -0.25969 1.514 2650 
693 1 -0.0363319 -0.00950458 -0.0581631 0.000423 3.1661 2.27737 -1.97772 2650 
295 1 -0.0374518 -0.00226703 -0.0578133 0.000116 0.104981 -0.5768 -0.0680072 2650 
186 1 -0.0377943 -0.00540862 -0.0575901 0.000116 -2.68644 -0.124594 1.76301 2650 
3729 1 -0.0388834 -0.0306788 -0.0562075 0.000656 -1.85656 0.290121 1.28434 2650 
1170 1 -0.039703 -0.0292465 -0.0562912 0.000116 -1.90188 0.762453 1.34142 2650 
2574 1 -0.0405328 -0.0322854 -0.0553176 0.000423 -1.56312 -0.123965 1.14535 2650 
419 1 -0.0417788 -0.00898924 -0.0547682 0.000116 -2.40876 -0.149519 1.83747 2650 
3615 1 -0.0423845 -0.0268395 -0.0543945 4.2e-05 4.03516 -0.650652 -3.14422 2650 
3084 1 -0.0426115 -0.0348666 -0.0534366 0.000656 -1.73868 -0.213259 1.38646 2650 
1751 1 -0.0433797 -0.0030792 -0.0536042 4.2e-05 -1.90025 -0.883247 1.5378 2650 
3079 1 -0.0439063 -0.0319776 -0.0523778 0.000656 -1.72674 -0.00564574 1.44746 2650 
3945 1 -0.04429 -0.0128291 -0.0528546 4.2e-05 9.94371 -0.403501 -8.33241 2650 
3978 1 -0.0446294 -0.0341718 -0.0520688 0.000423 -1.58416 0.0415221 1.35782 2650 
1206 1 -0.043308 -0.0291341 -0.0517473 4.2e-05 -1.34221 -1.17318 -8.73048 2650 
2460 1 -0.044839 -0.0278246 -0.0518885 0.000423 -1.27334 -0.377832 1.10034 2650 
3887 1 -0.0467917 -0.0419412 -0.0501347 0.000423 -0.771032 0.197385 0.719619 2650 
2183 1 -0.0475172 -0.0289451 -0.0498712 0.000116 -1.46532 -0.396889 1.39615 2650 
3089 1 -0.0475807 -0.0191748 -0.0493866 0.000423 -1.9965 -0.242454 1.92349 2650 
3393 1 -0.048072 -0.0104354 -0.0494398 4.2e-05 -2.23996 -0.323371 2.17799 2650 
3314 1 -0.047307 -0.00113534 -0.0496487 0.000423 -0.892834 -0.0867607 0.850723 2650 
631 1 -0.0495446 -0.00917778 -0.0478576 0.000116 -2.21738 -0.198349 2.29554 2650 
681 1 -0.0501825 -0.0356105 -0.0467404 0.000423 -0.677248 0.245199 0.727111 2650 
1076 1 -0.0503286 -0.0090425 -0.0470325 0.000116 -2.18752 -0.187482 2.34082 2650 
4210 1 -0.050782 -0.0364804 -0.0460883 0.000423 -0.608974 -1.02548 0.670998 2650 
29 1 -0.0520792 -0.0217514 -0.0446173 0.000423 -0.736053 1.07995 0.859153 2650 
2132 1 -0.0522912 -0.0179201 -0.0443687 0.000423 1.44956 -0.080789 -1.7084 2650 
197 1 -0.0522676 -0.00810373 -0.0448678 0.000116 1.18823 0.837611 -1.3842 2650 
2117 1 -0.0522667 -0.0035983 -0.0443976 0.000423 -1.8478 0.0570966 2.1753 2650 
1914 1 -0.0530544 -0.0263055 -0.0434531 0.000423 -0.251543 -0.0453351 0.307124 2650 
2232 1 -0.0532897 -0.0384064 -0.0431643 0.000423 -0.740116 0.179473 0.913733 2650 
203 1 -0.0549945 -0.00605144 -0.0414805 0.000116 -1.92971 -0.137393 2.55839 2650 
2282 1 -0.0555077 -0.0170742 -0.0407912 0.000116 -1.8856 -0.233176 2.56588 2650 
3378 1 -0.0560934 -0.00863241 -0.0399819 0.000116 -0.684019 0.266164 0.959656 2650 
2530 1 -0.0294023 -0.010816 -0.0394986 0.000656 -4.38946 -0.606834 -5.86144 2650 
3348 1 -0.0571241 -0.0432258 -0.0384949 0.000116 -0.81786 1.48583 1.21365 2650 
3198 1 -0.0574255 -0.0310228 -0.0374868 0.000423 -0.127718 0.242526 0.195649 2650 
1640 1 -0.0577547 -0.00302441 -0.0376777 4.2e-05 -0.705335 0.147194 1.08118 2650 
433 1 -0.0591706 -0.0118574 -0.0354125 4.2e-05 -1.61142 -0.11764 2.69251 2650 
1378 1 -0.0598838 -0.0130032 -0.0340433 0.000116 -1.58348 -0.177961 2.78541 2650 
114 1 -0.0591689 -0.00504983 -0.034209 0.000656 -1.38462 -0.197632 2.39489 2650 
4068 1 -0.0603185 -0.0296924 -0.0326286 0.000423 -0.693454 -0.237926 1.28194 2650 
2038 1 -0.0584191 -0.0203824 -0.0316701 0.000116 1.46748 -0.275394 -2.99037 2650 
4342 1 -0.0608923 -0.0055544 -0.0322048 0.000116 -1.23894 0.368712 2.34256 2650 
2234 1 -0.0610606 -0.0366417 -0.0312178 0.000423 -0.943471 -0.259355 1.84539 2650 
940 1 -0.061498 -0.024946 -0.0310326 0.000116 -0.766373 -0.683932 1.51874 2650 
2768 1 -0.0611785 -0.0102811 -0.0309861 0.000423 -0.768077 -0.261206 1.51648 2650 
1690 1 -0.0614836 -0.0360195 -0.0303763 0.000423 -1.43296 -0.690231 2.90042 2650 
1095 1 -0.058645 -0.00438845 -0.0303046 4.2e-05 -0.462794 -0.088838 3.1385 2650 
3229 1 -0.0624135 -0.00584895 -0.0284166 0.000423 -0.290425 0.28547 0.637882 2650 
107 1 -0.0626815 -0.00489527 -0.0287443 4.2e-05 -1.26357 0.671912 2.75542 2650 
1838 1 -0.054464 -0.0425091 -0.0277571 0.000116 5.84077 -0.38313 -13.6215 2650 
2014 1 -0.0631131 -0.0115496 -0.026827 0.000423 -1.18106 0.195315 2.77856 2650 
3671 1 -0.062967 -0.000627344 -0.0271681 0.000423 -0.740488 -0.0362886 1.71621 2650 
208 1 -0.0638661 -0.0167398 -0.0258097 0.000116 -0.27412 1.65804 0.678313 2650 
892 1 -0.0632478 -0.00504066 -0.025902 0.000656 -0.692466 0.115177 1.69087 2650 
2002 1 -0.0641312 -0.00233622 -0.0242927 0.000423 -0.70474 -0.0589544 1.86047 2650 
4098 1 -0.0646378 -0.0332661 -0.0229107 0.000423 -0.46443 -0.314964 1.31029 2650 
1964 1 -0.0648078 -0.00173655 -0.0233446 0.000116 -0.66811 0.104828 1.85476 2650 
2242 1 -0.0645003 -0.00051677 -0.0232952 0.000423 -0.681385 -0.016463 1.88663 2650 
2898 1 -0.0648064 -0.0156528 -0.0224293 0.000423 0.0833686 0.556062 -0.240883 2650 
1808 1 -0.0492932 -0.0122092 -0.0227078 0.000423 -7.37388 -0.728334 -3.41155 2650 
4037 1 -0.0650102 -0.00315686 -0.0227749 0.000116 -1.01421 -0.0658646 2.89502 2650 
2821 1 -0.0652785 -0.0422756 -0.0219942 0.000116 -0.259608 -0.314337 0.770512 2650 
689 1 -0.0650785 -0.015819 -0.0216273 0.000423 0.0693473 0.639412 -0.208672 2650 
542 1 -0.0579738 -0.00396524 -0.0215416 4.2e-05 -8.8011 -0.0909109 -3.27026 2650 
1196 1 -0.0658415 -0.0364313 -0.0202463 0.000116 -0.353394 -0.566242 1.14924 2650 
269 1 -0.000133484 -0.00620239 -0.02001 0.000423 0.0681694 -0.551637 -1.81071 2650 
1111 1 -0.0656043 -0.0367251 -0.0191647 0.000656 -0.631832 0.428948 2.16288 2650 
2480 1 -0.0653427 -0.0200963 -0.0184873 0.000116 2.25423 0.816102 -2.08098 2650 
3058 1 -0.00601326 -0.00365777 -0.0186304 0.000116 -0.791522 -0.0700658 -2.50222 2650 
437 1 -0.0664567 -0.0019878 -0.0184041 4.2e-05 0.07916 -0.159766 -0.285845 2650 
3261 1 -0.0664832 -0.00437723 -0.0180279 0.000116 -0.1028 -0.22859 0.379107 2650 
3470 1 -0.0665174 -0.00411935 -0.0179013 0.000116 -0.0895663 -0.130584 0.33281 2650 
606 1 -0.000183 0.00204169 -0.016592 0.000116 0 -0.011753 0 2650 
2520 1 -0.000401947 0.00491676 -0.0166345 4.2e-05 0.00271487 -0.00197792 -0.0154802 2650 
3395 1 -0.00187056 0.0267626 -0.0166066 4.2e-05 -0.373207 -0.175316 -0.00254713 2650 
3640 1 -0.0151027 -0.00673824 -0.0163978 0.000423 -1.62132 -0.504732 -1.80563 2650 
2172 1 -0.00226761 -0.00129717 -0.0164526 0.000116 0.0682862 0.00746542 -0.00852403 2650 
30 1 -0.00128589 -0.000829174 -0.0159694 0.000423 -0.0136125 -0.0214967 0.00834717 2650 
2013 1 -0.00290138 0.00295822 -0.0159673 0.000423 -0.00154235 0.00221798 0.00156406 2650 
2301 1 -0.0042648 0.00384266 -0.0163492 4.2e-05 -0.00116259 -0.0070103 0.00459775 2650 
1679 1 -0.00397653 0.0039235 -0.0159363 0.000423 -0.00453172 0.0157125 0.00260684 2650 
2283 1 -0.00352298 0.00388429 -0.0164299 0.000116 -0.00010552 0.00956354 0.000789399 2650 
3121 1 -0.000422759 0.00518415 -0.0161972 0.000423 0.0292403 0.00123583 8.703e-05 2650 
978 1 -0.0033372 0.0064876 -0.0163214 0.000116 0.0180122 -0.00353228 -0.00159853 2650 
3934 1 -0.001977 0.00680369 -0.016218 0.000116 0 -0.011753 0 2650 
3177 1 -0.000314548 0.00867231 -0.0159591 4.2e-05 0.00917698 -0.00185525 -0.00666376 2650 
1483 1 -0.000409663 0.00974275 -0.0160447 0.000423 -0.00134867 0.0112238 -0.0085204 2650 
3007 1 -0.00247901 0.0109446 -0.0161595 0.000423 -0.00351627 -0.00337698 0.014455 2650 
371 1 -0.00054475 0.0106514 -0.0159978 0.000423 0.0024809 0.0249977 -0.0257035 2650 
188 1 -0.00211446 0.0119331 -0.0164236 0.000116 -0.0148612 0.0228045 0.00418427 2650 
2713 1 -0.000729172 0.0133616 -0.0162794 0.000116 0.00037122 0.035974 0.00535071 2650 
2924 1 -0.0056093 0.0144368 -0.0158022 0.000116 -0.0500795 0.0331408 0.0243033 2650 
3279 1 -0.000504812 0.0442057 -0.0162804 0.000116 0.0698602 -0.118112 -0.0910458 2650 
2021 1 -0.00463981 0.053596 -0.0158086 0.000423 0.161017 -0.0932862 -0.0357176 2650 
4377 1 -0.0656718 -0.0289808 -0.015624 4.2e-05 2.11849 -1.22149 -7.54249 2650 
2765 1 -0.0667939 -0.0226384 -0.0155408 0.000423 -0.325486 0.584562 1.39893 2650 
4244 1 -0.000240127 -0.00247507 -0.0150548 0.000116 -0.0436806 -0.00994679 0.0125723 2650 
736 1 -0.00645083 -0.000552854 -0.0151945 0.000116 -0.0307431 -0.0170391 0.0144389 2650 
2399 1 -0.002418 0.00225569 -0.015541 0.000116 0 -0.011753 0 2650 
3637 1 -0.00489184 0.00338086 -0.0156622 0.000423 -0.0121297 0.0118194 -0.00377228 2650 
1611 1 -0.00462474 0.00537232 -0.0152719 0.000116 0.0134772 -0.0209987 -0.0751807 2650 
4227 1 -0.000537011 0.00502191 -0.0152973 0.000116 0.00143204 -0.0228975 -0.0290312 2650 
2438 1 -0.00590399 0.00726685 -0.0150659 0.000423 -0.00472103 -0.000373669 -0.00125399 2650 
3830 1 -0.006879 0.00835569 -0.015411 4.2e-05 0 -0.011753 0 2650 
233 1 -0.00410426 0.00912194 -0.015116 0.000423 0.0114684 -0.00558491 0.0116559 2650 
289 1 -0.0029618 0.00971806 -0.0154832 0.000116 -0.00850769 0.000708308 0.0302001 2650 
2969 1 -0.00215711 0.00989711 -0.015095 0.000656 -0.00775713 0.0181674 -1.8219e-05 2650 
938 1 -0.00144508 0.00989252 -0.0155881 0.000116 -0.00119823 0.000558801 -0.00633771 2650 
3500 1 -0.00205132 0.0107454 -0.0156051 4.2e-05 -0.0454796 -0.00333034 0.0313479 2650 
2793 1 -0.000805953 0.0102941 -0.0152524 0.000423 -0.0133021 0.0647623 0.00243086 2650 
3644 1 -0.00115718 0.0129359 -0.0157334 0.000423 -0.000399523 0.00418678 0.0157329 2650 
2585 1 -0.000281275 0.0222028 -0.0154803 0.000116 -0.0221426 0.0759057 0.0070692 2650 
148 1 -0.00621111 0.0309784 -0.0152233 0.000423 -0.145516 -0.155086 0.0592808 2650 
2084 1 -0.00680894 0.0324857 -0.0154613 4.2e-05 0.307681 0.103105 -0.161547 2650 
4010 1 -0.00583554 0.0400314 -0.0156843 0.000116 -0.0944465 0.099748 0.0197066 2650 
2996 1 -0.0670997 -0.0110089 -0.0141629 0.000423 -0.520212 0.123626 2.46461 2650 
2666 1 -0.00539522 -0.0026027 -0.014241 0.000423 0.0429038 -0.00888448 0.00629481 2650 
1053 1 -0.007469 -0.00158631 -0.014946 0.000116 0 -0.011753 0 2650 
509 1 -0.00749976 -0.000276974 -0.0149765 0.000116 -0.00480979 -0.0076817 0.0108723 2650 
1991 1 -0.00707212 0.00032436 -0.0144122 0.000656 -0.019376 -0.00203791 0.00870126 2650 
3239 1 -0.00583384 0.00125329 -0.0145309 0.000116 -0.0248133 -0.00752354 0.0120924 2650 
857 1 -0.00308729 0.00202191 -0.0149303 0.000116 -0.0623021 0.0193526 0.00200378 2650 
3365 1 -0.002315 0.00468169 -0.014552 0.000116 0 -0.011753 0 2650 
1192 1 -0.00671738 0.00532883 -0.0142274 0.000116 -0.0160738 0.0171838 -0.0228619 2650 
1388 1 -0.00467947 0.00541585 -0.0143442 0.000116 -0.039288 0.0021603 0.0169103 2650 
2344 1 -0.000375441 0.00506772 -0.0143041 0.000423 0.00575909 -0.0231993 -0.0217047 2650 
1204 1 -0.00562023 0.00764482 -0.0149232 4.2e-05 0.0310616 -0.0128877 0.0295818 2650 
581 1 -0.00563076 0.00803225 -0.0145713 0.000423 0.00044719 0.0010883 0.00185987 2650 
2313 1 -0.0037566 0.00799568 -0.0142869 0.000656 0.00500542 -0.00556791 -0.044623 2650 
2092 1 -0.00666777 0.00915405 -0.0145247 0.000656 -0.00167296 0.00263094 0.0238503 2650 
86 1 -0.00363634 0.0100144 -0.014991 0.000116 -0.0196067 0.0126222 0.000798653 2650 
70 1 -0.00626462 0.0109356 -0.0146627 0.000116 0.0420474 0.0335815 -0.0676972 2650 
2781 1 -0.00603606 0.0105369 -0.0143192 0.000423 -0.00287998 0.011096 -0.0317373 2650 
1617 1 -0.000869242 0.0107028 -0.0145172 0.000116 0.00511482 0.0710113 0.047396 2650 
1228 1 -0.00168628 0.0115564 -0.0149637 0.000423 -0.0026547 0.0243513 0.000515369 2650 
2182 1 -0.000886329 0.011061 -0.0147664 0.000116 -0.0273815 0.022445 -0.0411396 2650 
1839 1 -0.00218867 0.0148095 -0.0149875 0.000116 -0.0676852 0.0211351 0.0188737 2650 
4231 1 -0.00132977 0.0180288 -0.0143402 0.000116 -0.0134934 0.0153003 0.0304581 2650 
2466 1 -0.00713253 0.0203387 -0.0146982 0.000423 0.048327 0.0396991 -0.0547289 2650 
2497 1 -0.00756208 0.0231457 -0.0149554 0.000116 0.26823 0.110209 -0.140993 2650 
4234 1 -0.0044123 0.0300359 -0.0144383 0.000116 -0.0277623 0.0670651 -0.0707711 2650 
945 1 -0.00805453 0.0482941 -0.014615 0.000116 -0.192436 -0.107086 0.0844573 2650 
3599 1 -0.00161248 -0.00127269 -0.0138995 0.000116 0.00758272 -0.00512374 -0.0536854 2650 
2332 1 -0.00538671 -0.000594476 -0.013554 0.000423 -0.0114447 -0.00779769 0.00753018 2650 
2922 1 -0.0074655 0.00137683 -0.0137903 0.000116 -0.00925852 -0.000802711 0.00675368 2650 
2512 1 -0.00775489 0.00252938 -0.0134531 0.000116 0.018779 -0.0192413 0.00230208 2650 
3587 1 -0.00887258 0.0038075 -0.0135308 0.000116 -0.0579635 0.0255056 0.0285778 2650 
150 1 -0.00844499 0.00319558 -0.0139181 0.000423 -0.0542472 0.016714 0.0257745 2650 
220 1 -0.00344493 0.00321999 -0.0142024 4.2e-05 0.00197382 0.00663681 0.00671825 2650 
4300 1 -0.000642494 0.00363467 -0.0135629 0.000423 0.0157414 0.0249973 -0.0399245 2650 
2913 1 -0.00910489 0.00461623 -0.0138026 0.000116 -0.0140945 -0.0228944 -0.00540615 2650 
2322 1 -0.00900124 0.0060629 -0.0134707 0.000656 -0.00299145 -0.013582 0.00409796 2650 
1288 1 -0.002467 0.00598469 -0.014044 0.000116 0 -0.011753 0 2650 
3515 1 -0.00815056 0.00694097 -0.013966 0.000656 -0.00927244 -0.00874495 -0.000839897 2650 
2918 1 -0.0070983 0.00634547 -0.0137813 0.000116 0.0149777 0.0131491 0.0124233 2650 
963 1 -0.00702145 0.00704276 -0.0138144 0.000116 0.00350227 -0.00324664 0.0156587 2650 
1618 1 -0.00990572 0.00748065 -0.0135791 0.000116 0.0059414 0.00192455 -0.00369393 2650 
1250 1 -0.00865004 0.00781373 -0.013438 0.000423 -0.00730125 -0.00574558 -0.000431452 2650 
4257 1 -0.00800333 0.00778564 -0.013427 0.000116 -0.00578911 -0.00907208 0.00958653 2650 
2222 1 -0.000741195 0.00772154 -0.0135225 0.000423 0.00109584 0.00172293 0.0219135 2650 
1769 1 -0.00773199 0.00846967 -0.0139882 0.000656 -0.0151574 -0.00915465 0.00228284 2650 
1237 1 -0.00934455 0.00912255 -0.0134563 0.000423 -0.00605829 0.0121717 0.00682088 2650 
4190 1 -0.00871435 0.00891866 -0.0139833 0.000423 -0.00859035 0.00712776 0.00539587 2650 
1476 1 -0.00728918 0.00991951 -0.0134374 0.000423 -0.00473027 0.00118609 -0.000138689 2650 
1827 1 -0.00610901 0.00975682 -0.0138441 0.000116 0.0445821 -0.0304485 -0.00868089 2650 
1409 1 -0.00044 0.00976469 -0.013868 0.000116 0 -0.011753 0 2650 
3150 1 -0.000925574 0.0107173 -0.013994 0.000116 -0.0182263 -0.0087302 -0.0269448 2650 
3163 1 -0.00817895 0.012635 -0.0141428 0.000116 -0.0370466 0.0283549 -0.0433006 2650 
1717 1 -0.00297512 0.0258666 -0.013596 0.000116 -0.014717 0.0706098 -0.0348682 2650 
1195 1 -0.00702133 0.0294863 -0.0139762 0.000116 0.0557766 0.0782116 -0.0138054 2650 
2643 1 -0.00728253 0.0318204 -0.0134491 0.000656 -0.0823633 0.0688822 0.0201377 2650 
1124 1 -0.00195541 0.0367854 -0.0141346 0.000423 0.115227 0.0704534 -0.0460588 2650 
2863 1 -0.00466008 0.0486408 -0.0140661 0.000656 0.0278245 0.133951 -0.121512 2650 
4097 1 -0.00739242 -0.00326394 -0.013356 0.000423 0.0222564 -0.0142204 -0.0225559 2650 
1763 1 -0.00142097 -0.00299769 -0.0127172 0.000656 -0.0890582 0.0217677 -0.0881811 2650 
3576 1 -0.00458721 -0.00147112 -0.013269 0.000116 0.0561059 0.00120064 -0.0311085 2650 
3191 1 -0.00898432 -0.000439379 -0.0127882 0.000656 -0.0183475 -0.00795438 -0.00635009 2650 
623 1 -0.00779091 -0.000266979 -0.0132072 0.000116 -0.0192086 -0.00896372 0.0230222 2650 
2525 1 -0.004063 0.000211687 -0.013231 4.2e-05 0 -0.011753 0 2650 
4126 1 -0.00725875 0.000932473 -0.0128809 0.000116 -0.0261531 0.0084042 0.00402279 2650 
2619 1 -0.00607073 0.00088985 -0.0127694 0.000116 -0.0137973 -0.0204082 0.00531131 2650 
4165 1 -0.00524295 0.00102888 -0.0129187 0.000656 -0.00295906 -0.0330191 0.0101422 2650 
3880 1 -0.0103423 0.00203562 -0.0128777 0.000423 -0.0020648 -0.00583391 0.00454369 2650 
2473 1 -0.00938508 0.00198623 -0.0127764 0.000423 0.0167774 -0.00661482 -0.0238345 2650 
2609 1 -0.00886 0.00175169 -0.013248 0.000116 0 -0.011753 0 2650 
3316 1 -0.00944529 0.00309227 -0.0131279 0.000423 -0.00544519 -0.0183171 -0.00879554 2650 
1171 1 -0.00745622 0.00315493 -0.01291 0.000116 0.0131753 -0.0110464 0.0150896 2650 
1032 1 -0.00551318 0.00312367 -0.0133214 0.000423 0.0299121 -0.00820922 0.0127278 2650 
676 1 -0.00464392 0.00240899 -0.0132405 0.000423 -0.0128147 0.00889048 0.0204924 2650 
3917 1 -0.003984 0.00251269 -0.012703 0.000116 0 -0.011753 0 2650 
2059 1 -0.003583 0.00272169 -0.012756 0.000116 0 -0.011753 0 2650 
2474 1 -0.00181322 0.00290415 -0.0133301 0.000423 0.0307748 -0.0136667 -0.043701 2650 
889 1 -0.00292444 0.0036552 -0.0129821 0.000656 0.0239908 0.0133229 -0.0547828 2650 
3787 1 -0.0066734 0.00412916 -0.0131729 0.000116 -0.0024271 -0.00223267 -0.0195234 2650 
763 1 -0.00649198 0.00473434 -0.0127255 4.2e-05 -0.0107376 -0.0192397 -0.014763 2650 
3446 1 -0.00108915 0.00418855 -0.012973 0.000423 0.016221 -0.0142776 -0.00742368 2650 
1427 1 -0.002948 0.00505269 -0.013376 4.2e-05 0 -0.011753 0 2650 
3362 1 -0.00262745 0.00484162 -0.0127126 0.000116 0.000350619 -0.00253681 -0.00404217 2650 
2912 1 -0.00543947 0.00620794 -0.0131324 0.000116 0.00196064 0.0151142 0.00117299 2650 
445 1 -0.0100399 0.0070576 -0.0127986 0.000656 -0.00236227 -0.000765152 0.00548657 2650 
3259 1 -0.00885528 0.00662162 -0.0127025 0.000116 0.00136236 -0.0113258 0.00321419 2650 
4179 1 -0.00793202 0.00656578 -0.0129194 0.000423 -0.0070231 -0.0226882 -0.00131956 2650 
1795 1 -0.00901303 0.00737839 -0.0127155 0.000423 -5.39571e-05 -0.00579665 0.00392393 2650 
3364 1 -0.00665594 0.00736743 -0.0130765 0.000116 -0.00179506 0.0163753 -0.0232219 2650 
2483 1 -0.00705572 0.00835422 -0.0129984 0.000116 0.0222317 -0.00887276 -0.000700143 2650 
2774 1 -0.00381815 0.00864898 -0.0132916 0.000423 -0.0406747 0.0248176 -0.0142526 2650 
205 1 -0.000728136 0.00793426 -0.0129669 0.000116 0.00114706 0.000219934 0.0269812 2650 
2726 1 -2.82695e-05 0.00842921 -0.0132716 0.000116 -0.00741369 0.00988612 -0.041436 2650 
3847 1 -0.00942402 0.0101019 -0.0130022 0.000656 0.00218348 0.0145646 -0.00497691 2650 
1775 1 -0.00824489 0.0105724 -0.0131026 0.000423 -0.000575409 -0.0115316 -0.00160845 2650 
2798 1 -0.00683917 0.0108171 -0.0126566 0.000423 0.00307291 0.0287307 -0.0047091 2650 
2453 1 -0.00617149 0.0103867 -0.0132039 0.000423 0.00287214 0.0261989 -0.0126472 2650 
3471 1 -0.00791421 0.011747 -0.0128575 0.000116 0.00654915 0.0415659 -0.0136084 2650 
1986 1 -0.00220681 0.0112272 -0.0126952 0.000656 0.00762539 0.0149956 0.0116892 2650 
3838 1 -0.00559791 0.012024 -0.0132001 0.000656 0.0059045 0.0308137 -0.0288407 2650 
1802 1 -0.00360966 0.0124201 -0.0132346 0.000423 0.00500259 -0.000364755 -0.0111755 2650 