ITEM: TIMESTEP
5474586
ITEM: NUMBER OF ATOMS
4356
ITEM: BOX BOUNDS ff ff ff
-0.15 0.15
-0.15 0.06
-0.15 0.15
ITEM: ATOMS id type x y z radius vx vy vz density 
1520 1 -0.0104233 -0.0540338 -0.068091 0.000116 6.77295 -0.379826 -1.03679 2650 
3308 1 -0.0133428 -0.0590464 -0.0672675 0.000423 -2.51707 -0.256989 0.499274 2650 
4139 1 -0.0208261 -0.0571586 -0.0656605 0.000116 -1.16409 0.26854 0.369225 2650 
4016 1 -0.0227709 -0.0497636 -0.0650116 0.000116 6.67435 1.77444 -2.33775 2650 
2855 1 -0.0238125 -0.0577579 -0.0647161 4.2e-05 -1.33845 0.198097 0.492485 2650 
1563 1 -0.0258927 -0.0559008 -0.0635022 0.000423 -3.13708 0.464008 1.27913 2650 
4331 1 -0.0322651 -0.0504511 -0.0608604 0.000116 -2.02022 -2.02781 1.07102 2650 
1961 1 -0.0362167 -0.0544907 -0.058595 0.000116 1.70522 0.415703 -1.05397 2650 
1591 1 -0.0399545 -0.0461226 -0.0557368 0.000423 -1.44469 0.289931 1.03562 2650 
1417 1 -0.0425616 -0.054279 -0.0541621 0.000116 -1.73338 -0.09951 1.36212 2650 
208 1 -0.0459805 -0.0573497 -0.0511075 0.000116 -5.33181 2.8097 -0.271841 2650 
4150 1 -0.0543709 -0.055082 -0.0422946 0.000116 0.825809 0.797046 -1.0616 2650 
2256 1 -0.0612923 -0.0453721 -0.0313866 0.000116 0.300967 -0.643333 -0.81006 2650 
747 1 -0.0615487 -0.0626619 -0.0309188 0.000116 7.24592 -0.0156223 -13.0927 2650 
1051 1 -0.064163 -0.062684 -0.0250626 0.000116 0.269735 -0.000476112 -0.690551 2650 
3425 1 -0.0652133 -0.0617775 -0.0212174 0.000423 -0.439171 -0.0465236 1.34982 2650 
2201 1 -0.0657703 -0.0488918 -0.0185865 0.000656 0.0600414 0.672514 -0.212463 2650 
2162 1 -0.0645896 -0.0526113 -0.0169135 0.000116 1.07566 7.75575 -0.519624 2650 
4316 1 -0.0667282 -0.0616914 -0.0154854 0.000423 -0.124737 0.0221004 0.935234 2650 
19 1 -0.0668945 -0.0622999 -0.0143633 0.000423 0.256121 -0.0121282 -1.2692 2650 
2274 1 -0.0680252 -0.0589483 -0.0108445 0.000116 1.07112 0.446269 -6.71888 2650 
3692 1 -0.0684647 -0.0531449 -0.00758988 0.000116 0.0596623 0.250032 -0.538186 2650 
1314 1 -0.0679469 -0.06066 0.0117658 4.2e-05 -1.0054 -0.735945 -5.80616 2650 
649 1 -0.0678463 -0.0604196 0.0119122 0.000116 -0.240526 0.701568 -1.36992 2650 
1060 1 -0.0670489 -0.0458279 0.0157945 0.000116 0.70956 -0.310462 3.01214 2650 
2083 1 -0.0668481 -0.0537419 0.0169274 4.2e-05 0.167197 0.0868787 0.66028 2650 
2790 1 -0.0649504 -0.0500921 0.0220091 0.000423 0.778058 -0.176661 2.2961 2650 
2557 1 -0.0635596 -0.0459622 0.0257512 0.000423 0.614332 0.0859352 1.51631 2650 
1208 1 -0.053318 -0.0534442 0.043731 4.2e-05 0.360907 -4.88579 0.440028 2650 
3331 1 -0.0507487 -0.054104 0.046125 0.000423 1.92984 0.166529 2.12329 2650 
1270 1 -0.044081 -0.0622298 0.0480878 0.000116 -3.42416 -0.401527 -6.44835 2650 
2612 1 -0.0488449 -0.0576012 0.0485716 0.000116 -1.43979 0.607327 -1.44789 2650 
1239 1 -0.0440738 -0.0571244 0.05254 0.000423 1.15123 -0.168621 0.965724 2650 
2954 1 -0.043263 -0.048537 0.0536035 0.000116 -0.94604 -0.846687 -0.763543 2650 
3348 1 -0.0433072 -0.0460832 0.0535678 0.000116 -0.178529 -0.976221 -0.144333 2650 
2667 1 -0.0291398 -0.062263 0.0620653 0.000423 2.17042 0.300731 0.598856 2650 
758 1 -0.0294755 -0.053915 0.0622594 0.000116 -14.5471 0.00600991 -6.88702 2650 
3957 1 -0.0290412 -0.0513414 0.0618693 0.000656 1.94396 0.416866 0.912487 2650 
689 1 -0.0272828 -0.0622896 0.0628425 0.000423 1.12726 0.0343169 0.317629 2650 
3785 1 -0.0289716 -0.0565565 0.0624953 0.000116 -3.16548 0.570679 -1.46745 2650 
343 1 -0.0267151 -0.0490887 0.0631605 0.000423 2.36398 0.291965 0.999896 2650 
3531 1 -0.0245672 -0.0520557 0.0640266 0.000423 1.93259 -0.472502 0.741539 2650 
575 1 -0.0241404 -0.0502381 0.0641887 0.000423 1.09845 -1.0301 0.41311 2650 
3069 1 -0.0209361 -0.0495581 0.065703 4.2e-05 2.42308 -1.1203 0.772108 2650 
3918 1 -0.0175056 -0.054949 0.0666227 0.000116 -13.2072 0.692274 -3.47027 2650 
2395 1 -0.0118709 -0.0624917 0.0678535 0.000116 -0.528163 -4.76957 -0.0924016 2650 
1463 1 -0.00991727 -0.0527193 0.0678572 0.000423 2.3718 -0.136838 0.346637 2650 
3840 1 -0.00242846 -0.0604518 0.0683031 0.000656 2.49644 -0.0631201 0.0887592 2650 
2928 1 -0.0103617 -0.0585428 0.0681004 0.000116 -13.5794 1.10247 -2.06616 2650 
893 1 -0.00444163 -0.0528854 0.0684341 0.000423 1.51537 -0.120191 0.0983534 2650 
4133 1 -0.0104351 -0.0465747 0.0680891 0.000116 -0.0286047 0.0697615 -0.00438385 2650 
1833 1 -0.00434074 -0.0231367 -0.0687472 0.000116 -2.79477 -0.583465 0.176464 2650 
835 1 -0.0047141 -0.0204546 -0.0687121 0.000116 -0.284979 0.178421 0.0623097 2650 
2418 1 -0.0010281 -0.0172228 -0.0689504 4.2e-05 -3.17253 -0.262136 0.0473047 2650 
3815 1 -0.00128127 -0.00963133 -0.0688722 0.000116 -3.25125 -0.273794 0.0604848 2650 
4138 1 -0.00159724 -0.00882056 -0.0688656 0.000116 -3.5996 0.189719 0.0834876 2650 
1870 1 -0.00251447 -0.00548394 -0.0689122 4.2e-05 -2.24986 -0.0428789 0.0820929 2650 
468 1 -0.00302132 -0.0430827 -0.0685115 0.000423 -2.76694 0.44538 0.12202 2650 
1372 1 -0.00650873 -0.0323839 -0.0682685 0.000423 -2.70517 -0.139555 0.257911 2650 
753 1 -0.00708776 -0.0302139 -0.0685185 0.000116 -1.95407 1.96868 0.202135 2650 
691 1 -0.00265617 -0.0302133 -0.0685266 0.000423 -2.99135 0.00421446 0.115948 2650 
91 1 -0.0077519 -0.0298621 -0.0684466 0.000116 -3.52924 -0.260093 0.399705 2650 
2208 1 -0.00500413 -0.0295707 -0.0681628 0.000656 -2.55043 0.0860255 0.187238 2650 
3543 1 -0.00289123 -0.0292193 -0.0685171 0.000423 -2.96926 0.0255533 0.125294 2650 
2679 1 -0.00740178 -0.0277691 -0.0681775 0.000423 -3.24304 -0.0420648 0.352085 2650 
4323 1 -0.00592716 -0.028064 -0.0683215 0.000423 -2.8435 0.248866 0.246685 2650 
1990 1 -0.00485775 -0.0281439 -0.0681734 0.000656 -2.83647 0.213538 0.202115 2650 
3527 1 -0.00960124 -0.0266536 -0.0679026 0.000423 -2.34993 -0.0782744 0.332274 2650 
1433 1 -0.00398277 -0.0223861 -0.0682301 0.000656 -2.89554 -0.354339 0.16902 2650 
2680 1 -0.000173033 -0.0208315 -0.0685815 0.000423 -2.75429 -0.436453 0.121406 2650 
3874 1 -0.001197 -0.0176142 -0.0685676 0.000423 -3.03563 -0.115114 0.0529938 2650 
1453 1 -0.00181146 -0.0168917 -0.0685542 0.000423 -3.09101 -0.13443 0.0816764 2650 
1325 1 -0.00758972 -0.0144054 -0.0679235 0.000656 -2.39052 0.264965 0.267115 2650 
2317 1 -0.00196852 -0.0138823 -0.0683179 0.000656 -2.3749 0.399794 0.0684307 2650 
1794 1 -0.00191723 -0.0117116 -0.0685513 0.000423 -2.85898 -0.0686538 0.0799596 2650 
491 1 -0.00131196 -0.0111178 -0.0685655 0.000423 -2.90872 -0.00951804 0.0556567 2650 
2000 1 -0.00575165 -0.0108085 -0.0683364 0.000423 0.188986 1.30121 -0.0159063 2650 
1943 1 -0.00848021 -0.00877278 -0.0683602 0.000116 5.80151 0.483034 -0.719689 2650 
1503 1 -0.0107948 -0.00770331 -0.068033 0.000116 -2.28525 2.25534 0.362602 2650 
3647 1 -0.00665787 -0.00416938 -0.0682541 0.000423 -3.26033 -0.107991 0.31803 2650 
1207 1 -0.0111633 -0.00355871 -0.0680484 4.2e-05 -1.61146 3.41636 0.264359 2650 
1912 1 -0.0119956 -0.0386914 -0.0675208 0.000423 -2.33965 -0.0474875 0.415658 2650 
2546 1 -0.0117652 -0.0249306 -0.0675613 0.000423 -2.55854 -0.270014 0.445547 2650 
3444 1 -0.0120189 -0.000882305 -0.0675167 0.000423 -2.83711 0.2193 0.505045 2650 
2211 1 -0.0139959 -0.0394017 -0.0668978 0.000656 -2.35071 -0.0996467 0.491799 2650 
935 1 -0.0158205 -0.0242917 -0.0667283 0.000423 -2.01542 -1.09059 0.477833 2650 
367 1 -0.0167492 -0.0193692 -0.0665013 0.000423 -2.4251 -0.227605 0.610792 2650 
2066 1 -0.0170036 -0.0132293 -0.0667525 0.000116 -2.75886 0.150409 0.702754 2650 
1210 1 -0.0173155 -0.00996581 -0.0667487 4.2e-05 -3.09648 -0.187623 0.803266 2650 
1587 1 -0.0177169 -0.0277367 -0.06625 0.000423 -0.51341 -0.696822 0.137299 2650 
1170 1 -0.0190552 -0.0183077 -0.0661961 0.000116 -3.11504 -0.161211 0.896694 2650 
2060 1 -0.0207643 -0.00566362 -0.06568 0.000116 0.408303 2.37737 -0.129083 2650 
2103 1 -0.0224839 -0.0216518 -0.0647876 0.000423 -2.56003 -0.0347612 0.888432 2650 
4025 1 -0.0226676 -0.0165377 -0.0650477 0.000116 -3.02374 0.142742 1.05371 2650 
1655 1 -0.0241156 -0.0438065 -0.0639503 0.000656 -1.35529 0.0894641 0.511077 2650 
14 1 -0.0246119 -0.0299963 -0.0640094 0.000423 -2.26937 0.0023443 0.872582 2650 
1356 1 -0.0245393 -0.0179414 -0.0640373 0.000423 -2.35961 -0.593229 0.904208 2650 
1020 1 -0.0245983 -0.0157151 -0.0640146 0.000423 -1.78931 0.480337 0.68756 2650 
3066 1 -0.0268625 -0.015627 -0.0635107 4.2e-05 -1.49584 -0.176472 0.63268 2650 
2337 1 -0.0284133 -0.00302021 -0.0624151 0.000423 -2.95126 0.203261 1.3435 2650 
2560 1 -0.0299522 -0.037691 -0.0616913 0.000423 -2.40696 0.179171 1.16862 2650 
3024 1 -0.00748093 -0.0199061 -0.0623125 0.000116 -4.51049 0.963969 1.79645 2650 
420 1 -0.0298523 -0.0130356 -0.0620795 0.000116 -2.8772 -0.231214 1.38357 2650 
4106 1 -0.0290675 -0.00839165 -0.0621131 0.000423 -2.66968 0.474128 1.24935 2650 
355 1 -0.0321466 -0.0247091 -0.0605768 0.000423 -2.44604 0.0917904 1.29806 2650 
400 1 -0.0324721 -0.00826947 -0.0607502 0.000116 -2.83445 -0.161438 1.51506 2650 
2052 1 -0.0326017 -0.0086428 -0.0606807 0.000116 -2.82606 -0.188033 1.51835 2650 
1598 1 -0.0324785 -0.0051548 -0.0607468 0.000116 -1.06261 -0.141464 0.56813 2650 
2875 1 -0.0343403 -0.00896846 -0.0593607 0.000423 -2.76693 -0.303141 1.60066 2650 
3502 1 -0.0340461 -0.00494408 -0.0599673 4.2e-05 -2.78331 -0.108362 1.58021 2650 
3227 1 -0.0354879 -0.0333824 -0.0586819 0.000423 -2.49149 -0.379218 1.50673 2650 
3619 1 -0.0356298 -0.00105124 -0.0589635 4.2e-05 5.9885 -0.290651 -3.92335 2650 
2465 1 -0.0367792 -0.0433229 -0.0578812 0.000423 -1.7442 0.254552 1.10831 2650 
821 1 -0.0361824 -0.0327799 -0.0582562 0.000423 -2.43861 0.257453 1.5146 2650 
1202 1 -0.0371708 -0.0218867 -0.0580822 4.2e-05 -1.52462 0.0353637 0.975709 2650 
2151 1 -0.0367684 -0.00712929 -0.0582504 0.000116 -2.64852 -0.11702 1.67178 2650 
3204 1 -0.0388183 -0.0261768 -0.056534 0.000423 -2.17476 0.047715 1.49327 2650 
3328 1 -0.0390672 -0.0248198 -0.0563623 0.000423 -2.29276 0.170526 1.58922 2650 
319 1 -0.0392481 -0.0192478 -0.0566093 0.000116 -2.64004 -0.162071 1.83038 2650 
4017 1 -0.039998 -0.00659159 -0.0560819 0.000116 0.121376 -0.268183 -0.0865667 2650 
3718 1 -0.0411864 -0.0241826 -0.0553072 4.2e-05 3.65288 0.526468 -2.72024 2650 
3875 1 -0.0408119 -0.0305205 -0.0551121 0.000423 -2.01492 0.230694 1.4921 2650 
152 1 -0.0416485 -0.0215023 -0.0544826 0.000423 -2.33613 0.345248 1.78582 2650 
1002 1 -0.0414832 -0.035132 -0.0543171 0.000656 -2.38805 -0.228988 1.82381 2650 
633 1 -0.0445543 -0.0145803 -0.0525351 0.000116 -2.46412 -0.168305 2.08979 2650 
3040 1 -0.0442116 -0.00317752 -0.0528239 0.000116 -1.43132 -0.175257 1.19796 2650 
3522 1 -0.046277 -0.0284121 -0.0506106 0.000423 -1.25098 -0.432107 1.12364 2650 
2862 1 -0.0457783 -0.0274666 -0.0507498 0.000656 -2.09609 0.20002 1.89829 2650 
3422 1 -0.045543 -0.0261172 -0.0512717 0.000423 -1.53249 -0.150638 1.36126 2650 
3196 1 -0.0218387 -0.0073914 -0.050209 0.000423 -3.24569 -0.351879 -7.53494 2650 
3391 1 -0.0484642 -0.0189378 -0.0490554 4.2e-05 -2.27639 0.0306948 2.24896 2650 
3945 1 -0.0482156 -0.00102066 -0.0492997 4.2e-05 4.94276 -0.0298815 -4.83407 2650 
3248 1 -0.0497882 -0.0092502 -0.0476042 0.000116 -2.21825 -0.199262 2.32002 2650 
844 1 -0.0502262 -0.0409965 -0.0471418 0.000116 -1.49534 -0.336723 1.59318 2650 
1957 1 -0.0511548 -0.0181233 -0.0461325 0.000116 -2.22265 0.101389 2.46463 2650 
1638 1 -0.0508443 -0.0145036 -0.0464747 0.000116 11.0923 -2.08308 -12.1352 2650 
1343 1 -0.0506228 -0.0149672 -0.0462633 0.000423 -2.08529 -0.205351 2.28179 2650 
4021 1 -0.0508112 -0.000744078 -0.0465107 0.000116 -0.281007 -0.0502926 0.30699 2650 
4250 1 -0.0521535 -0.0341743 -0.0450004 0.000116 -0.279547 -0.714119 0.323982 2650 
4320 1 -0.0513149 -0.0334031 -0.0454943 0.000423 -1.56524 0.0593946 1.7655 2650 
1647 1 -0.037713 -0.0215635 -0.043476 4.2e-05 7.52563 -0.635718 -1.07201 2650 
2051 1 -0.0530312 -0.0181915 -0.0439626 0.000116 -0.58821 0.905142 0.709546 2650 
615 1 -0.0530228 -0.0162369 -0.0439727 0.000116 -2.10311 -0.0944141 2.53595 2650 
981 1 -0.0536521 -0.0330663 -0.0433205 4.2e-05 2.29346 -0.664787 -2.84044 2650 
3964 1 -0.0538652 -0.0283613 -0.042444 0.000423 -1.54911 0.0461175 1.96596 2650 
2055 1 -0.0509975 -0.0407397 -0.0417465 0.000116 3.48542 0.0477456 -11.5602 2650 
1818 1 -0.0548469 -0.0166797 -0.0416754 0.000116 -1.93794 0.148906 2.55042 2650 
2247 1 -0.0552985 -0.0272185 -0.0405589 0.000423 -1.42337 0.139193 1.94064 2650 
838 1 -0.0555741 -0.0102596 -0.0407006 0.000116 -1.89885 -0.202298 2.59276 2650 
2605 1 -0.0566574 -0.0141907 -0.0391785 0.000116 -2.10606 0.0788126 3.04565 2650 
1282 1 -0.0572261 -0.0161157 -0.0383432 0.000116 -1.78325 -0.221183 2.66145 2650 
55 1 -0.0575392 -0.0245578 -0.0373121 0.000423 -1.24681 0.208558 1.92272 2650 
378 1 -0.0573517 -0.00908256 -0.0375996 0.000423 -1.53552 -0.00780977 2.34217 2650 
3974 1 -0.0578899 -0.0385615 -0.0367656 0.000423 -1.14587 -0.560685 1.80425 2650 
1363 1 -0.0578584 -0.019317 -0.0368152 0.000423 -1.72576 -0.390804 2.71219 2650 
3330 1 -0.0579852 -0.0101722 -0.0366152 0.000423 -1.41336 0.44569 2.23825 2650 
2578 1 -0.0585508 -0.0265952 -0.0357037 0.000423 -1.32467 0.0853136 2.17233 2650 
3516 1 -0.0583917 -0.00125608 -0.0355192 0.000656 -1.47673 0.487714 2.42767 2650 
482 1 -0.0604363 -0.0208968 -0.0323999 0.000423 -0.767972 0.118877 1.40803 2650 
3734 1 -0.0599772 -0.0194152 -0.0327712 0.000656 -1.50352 -0.152691 2.75171 2650 
3960 1 -0.0601321 -0.0143094 -0.0329709 0.000423 -1.5396 -0.449462 2.80791 2650 
3349 1 -0.0384244 -0.00426549 -0.0330287 0.000116 -5.88486 -0.111827 -5.07447 2650 
312 1 -0.0605991 -0.00210405 -0.0327531 0.000116 -1.36951 -0.0513659 2.53384 2650 
146 1 -0.0606153 -0.0200342 -0.0320756 0.000423 -1.33388 0.0721547 2.58356 2650 
2738 1 -0.0610837 -0.014491 -0.0319999 4.2e-05 -1.49827 -0.254038 2.86001 2650 
51 1 -0.0612229 -0.0449735 -0.0308983 0.000423 0.411508 0.423404 -0.81414 2650 
1537 1 -0.0613744 -0.000364366 -0.0314387 4.2e-05 -1.80094 0.21839 3.51578 2650 
1185 1 -0.0622241 -0.0191357 -0.0292652 0.000116 -0.265227 -2.23038 1.06168 2650 
1813 1 -0.0621265 -0.0392382 -0.0290389 0.000423 -1.18481 -0.243157 2.5348 2650 
4177 1 -0.0626408 -0.0384518 -0.027912 0.000423 -1.10658 -0.233242 2.48341 2650 
427 1 -0.0635272 -0.0102274 -0.026633 0.000116 -0.281191 0.254517 0.670718 2650 
1781 1 -0.0636953 -0.040456 -0.0254136 0.000423 0.0943612 0.788244 -0.236464 2650 
1619 1 -0.064601 -0.0131588 -0.0239109 0.000116 -0.996759 0.163188 2.69299 2650 
843 1 -0.0647127 -0.0429653 -0.0236069 0.000116 -0.317064 -0.00232395 0.869158 2650 
2672 1 -0.0644005 -0.014206 -0.0235698 0.000423 -1.0958 -0.221467 2.9941 2650 
1760 1 -0.048919 -0.000806256 -0.0231267 4.2e-05 -0.14808 -0.17038 -4.21845 2650 
2920 1 -0.0650681 -0.032903 -0.0226089 0.000116 -1.02329 -0.419897 2.94504 2650 
4303 1 -0.0649716 -0.027333 -0.0219465 0.000423 -0.626868 -0.0604379 1.85582 2650 
3946 1 -0.0653355 -0.0139009 -0.0219588 4.2e-05 -5.70861 3.14869 8.73901 2650 
980 1 -0.0631929 -0.0047218 -0.0218599 4.2e-05 0.963936 -0.0989096 3.51113 2650 
3426 1 -0.0654212 -0.0382639 -0.0205674 0.000423 -0.890601 -0.649975 2.83284 2650 
3580 1 -0.0650579 -0.0211612 -0.0207552 0.000116 -1.53903 -0.671539 0.938889 2650 
2835 1 -0.0655052 -0.00945611 -0.0213094 0.000116 1.96817 -0.945312 -6.05017 2650 
1500 1 -0.00101906 -0.00576416 -0.0198494 0.000116 -0.383199 -0.675038 -2.11274 2650 
1922 1 -0.0656941 -0.0166922 -0.0196784 0.000423 -0.899103 -0.141088 3.00156 2650 
2386 1 -0.0662659 -0.0194277 -0.0188109 0.000116 -0.849182 -0.244322 2.99145 2650 
3831 1 -0.066221 -0.0206868 -0.0177185 4.2e-05 4.49906 -1.26003 1.56031 2650 
1996 1 -0.0664339 -0.0440396 -0.0170143 0.000423 -0.647877 0.405764 2.52969 2650 
606 1 -0.000183 0.00329968 -0.016592 0.000116 0 -0.011753 0 2650 
188 1 -0.000509369 0.00871299 -0.0168139 0.000116 -0.0156058 0.0716121 0.00169132 2650 
2713 1 -0.000763 0.0102707 -0.016767 0.000116 0 -0.011753 0 2650 
1886 1 -0.0217593 -0.00490932 -0.015937 0.000423 -3.04926 -0.208087 -2.24783 2650 
2793 1 -0.00140732 -0.000549675 -0.0159064 0.000423 -0.196801 0.282111 -0.308846 2650 
736 1 -0.003429 0.00122468 -0.016474 0.000116 0 -0.011753 0 2650 
150 1 -0.0026455 0.000981431 -0.0162176 0.000423 -0.00913371 0.00501626 0.00203877 2650 
676 1 -0.00242908 0.00191483 -0.0159646 0.000423 -0.0130706 -0.00428427 0.0172903 2650 
1679 1 -0.00363478 0.00269283 -0.0159713 0.000423 -0.000267589 -0.00703629 -0.00433961 2650 
2013 1 -0.00275428 0.00289156 -0.0161478 0.000423 0.00298908 -0.00809762 0.00112683 2650 
2301 1 -0.004222 0.00507268 -0.016305 4.2e-05 0 -0.011753 0 2650 
3121 1 -0.00355693 0.00505229 -0.0160985 0.000423 0.0295457 0.00139416 -0.0105356 2650 
3589 1 -0.00291667 0.0047999 -0.0164205 0.000116 0.155503 0.064687 -0.0402711 2650 
1388 1 -0.000474243 0.00518462 -0.0161542 0.000116 -0.039288 0.0021603 0.0169103 2650 
302 1 -0.000515687 0.00624643 -0.0163882 0.000116 0.0171051 0.0203877 0.0103663 2650 
1219 1 -0.000815088 0.00677994 -0.0158442 0.000656 0.0133734 0.0239605 0.00857101 2650 
3934 1 -0.001977 0.00806168 -0.016218 0.000116 0 -0.011753 0 2650 
1617 1 -0.00390291 0.00963359 -0.0158411 0.000116 0.0304875 0.00968505 -0.0492471 2650 
142 1 -0.00354918 0.0228874 -0.0159888 0.000423 -0.0600809 0.0373384 0.0570253 2650 
4245 1 -0.000930281 0.0393006 -0.0164151 0.000116 -0.131082 0.152483 0.00432583 2650 
1357 1 -0.00354821 0.0470896 -0.0160274 0.000423 0.0681058 0.285169 -0.0155587 2650 
3043 1 -0.00152498 -0.000224308 -0.015439 0.000116 -0.16517 0.282697 -0.415627 2650 
623 1 -0.00687661 0.000588524 -0.0151789 0.000116 -0.00477071 -0.00938024 -0.0420845 2650 
1991 1 -0.00497726 0.000549341 -0.0153415 0.000656 -0.0197706 -0.00214867 0.00868857 2650 
222 1 -0.00198419 0.000419293 -0.0151412 0.000656 -0.00713779 -0.040298 -0.0148088 2650 
2922 1 -0.0064408 0.0016789 -0.015184 0.000116 -0.0108987 -0.0113206 0.0393947 2650 
3637 1 -0.00367391 0.00205838 -0.0150298 0.000423 -0.00927015 0.0142513 -0.0137177 2650 
3239 1 -0.00294071 0.00174187 -0.0157552 0.000116 -0.0332144 0.00168872 0.00188105 2650 
2399 1 -0.002418 0.00351368 -0.015541 0.000116 0 -0.011753 0 2650 
2283 1 -0.00177965 0.00398583 -0.0153018 0.000116 -0.0318858 -0.01081 -0.0228231 2650 
2313 1 -0.0049657 0.00532986 -0.0152729 0.000656 0.00856952 0.0288131 0.00982472 2650 
2438 1 -0.00573079 0.0067052 -0.0153506 0.000423 0.00192492 -0.00355692 -0.0258764 2650 
978 1 -0.0051394 0.00687991 -0.0155168 0.000116 0.015313 -0.00383775 -0.0151954 2650 
1620 1 -0.00376513 0.0074395 -0.0156078 0.000116 0.0529387 0.0514306 -0.00503745 2650 
2969 1 -0.00132365 0.00782999 -0.0150941 0.000656 -0.00819712 0.0280435 0.000260256 2650 
1483 1 -0.000306221 0.00824844 -0.0152285 0.000423 -0.0010087 0.0213686 -0.00667363 2650 
86 1 -0.002064 0.00931768 -0.015055 0.000116 0 -0.011753 0 2650 
3177 1 -0.001068 0.00911768 -0.015412 4.2e-05 0 -0.011753 0 2650 
1228 1 -0.00141916 0.00938387 -0.0150052 0.000423 -0.00123313 -0.0118667 -0.000623591 2650 
3830 1 -0.006879 0.00961368 -0.015411 4.2e-05 0 -0.011753 0 2650 
371 1 -0.000467066 0.0100567 -0.0151935 0.000423 0.000724313 -0.00601752 -0.0061741 2650 
938 1 -0.000869 0.0105237 -0.015416 0.000116 0 -0.011753 0 2650 
568 1 -0.00347157 0.016305 -0.015607 0.000423 0.0646767 0.0324089 0.0265592 2650 
913 1 -0.000859192 0.0233071 -0.0156095 0.000423 -0.0131935 0.0940792 0.0439723 2650 
2827 1 -0.00482822 -0.000904142 -0.014275 0.000116 -0.0201753 -0.0226203 0.0017234 2650 
1053 1 -0.007469 -0.000328321 -0.014946 0.000116 0 -0.011753 0 2650 
2817 1 -0.00193588 -0.000637696 -0.0144964 0.000116 0.0100645 -0.056664 0.00630574 2650 
2332 1 -0.00416171 0.000240156 -0.01436 0.000423 -0.0114447 -0.00779769 0.00753018 2650 
220 1 -0.003649 0.00257668 -0.014897 4.2e-05 0 -0.011753 0 2650 
3365 1 -0.002315 0.00593968 -0.014552 0.000116 0 -0.011753 0 2650 
1618 1 -0.00811359 0.00688734 -0.0146176 0.000116 -0.0222988 0.059375 0.0201275 2650 
3950 1 -0.00687612 0.00658605 -0.0144685 0.000656 -0.0401516 -0.0144037 -0.0334096 2650 
4190 1 -0.00821573 0.00856492 -0.0142769 0.000423 -0.009489 7.8582e-05 0.00632979 2650 
963 1 -0.00533063 0.00815651 -0.0146285 0.000116 -0.029376 -0.065298 -0.0412241 2650 
581 1 -0.00559674 0.00880292 -0.014286 0.000423 -0.000593495 -0.0101803 -0.00423903 2650 
3669 1 -0.000287321 0.0107554 -0.0146067 0.000423 0.00220454 -0.00743356 -0.00383523 2650 
3644 1 -0.000872787 0.0123074 -0.0144448 0.000423 -0.00432743 0.00711996 -0.0325914 2650 
3216 1 -0.00454207 0.0247413 -0.0142976 0.000423 -0.00544148 0.107266 0.0543995 2650 
3573 1 -0.00634135 0.0337506 -0.0144766 0.000116 0.196545 -0.226716 -0.153339 2650 
509 1 -0.00729544 -0.000490358 -0.0137685 0.000116 -0.00521486 0.00944493 -0.0325939 2650 
3733 1 -0.0062052 0.000905835 -0.0139389 0.000656 -0.0232119 0.0173762 0.0152854 2650 
2512 1 -0.00971165 0.00457854 -0.0135894 0.000116 0.002514 -0.0160812 -0.0313025 2650 
1171 1 -0.00850607 0.00441317 -0.013811 0.000116 -0.0146011 -0.0168948 -0.0399555 2650 
3587 1 -0.005862 0.00411464 -0.0140295 0.000116 -0.0152422 -0.0151231 -0.00566973 2650 
4165 1 -0.00517093 0.00448513 -0.0138457 0.000656 -0.000243806 -0.0320728 0.00848336 2650 
234 1 -0.00148341 0.00399977 -0.0139374 0.000423 0.0351287 -0.0167305 0.0264562 2650 
4296 1 -0.00314377 0.00613423 -0.0138707 0.000423 -0.0431702 0.0421068 0.0473826 2650 
2322 1 -0.00817182 0.00736277 -0.0136425 0.000656 -0.0108707 -0.010103 0.00337555 2650 
1288 1 -0.002467 0.00724268 -0.014044 0.000116 0 -0.011753 0 2650 
4227 1 -0.0002352 0.00718526 -0.0140898 0.000116 -0.00921828 -0.0161692 0.0154311 2650 
508 1 -0.00879145 0.00814195 -0.0141203 0.000116 -0.0609474 0.0130298 0.0475554 2650 
3515 1 -0.0070326 0.0079273 -0.0141666 0.000656 -0.0103794 -0.0121819 0.00307219 2650 
2222 1 -0.000369548 0.00809342 -0.0141539 0.000423 -0.00549102 -0.00568171 -0.00117535 2650 
1827 1 -0.00609139 0.00935203 -0.0136635 0.000116 -0.0386186 0.00754243 -0.0442276 2650 
1476 1 -0.006941 0.0100427 -0.013435 0.000423 0 -0.011753 0 2650 
233 1 -0.00478308 0.00992584 -0.0141676 0.000423 0.000342891 -0.00976437 -0.0328705 2650 
1986 1 -0.003023 0.00962212 -0.0139464 0.000656 0.00762539 0.0149956 0.0116892 2650 
4257 1 -0.00836232 0.0105279 -0.0141195 0.000116 0.0101268 -0.0416798 0.0036163 2650 
1409 1 -0.00044 0.0110227 -0.013868 0.000116 0 -0.011753 0 2650 
3007 1 -0.00113184 0.0114689 -0.0135806 0.000423 -0.0135196 -0.00505473 -0.0280609 2650 
3632 1 -0.00942692 0.01279 -0.0135686 0.000423 -0.0216519 0.000467483 0.0139725 2650 
478 1 -0.00714765 0.0148223 -0.0136002 0.000423 -0.0255767 0.012458 -0.051203 2650 
2467 1 -0.00154015 0.0295487 -0.0139879 0.000423 0.0301791 0.103437 0.0421276 2650 
3337 1 -0.0673969 -0.00945185 -0.0126733 0.000423 -0.593025 -0.199317 3.15373 2650 
330 1 -0.00728914 -0.00293808 -0.0127613 4.2e-05 -0.0696064 -0.0147686 0.0345761 2650 
4097 1 -0.00872706 -0.00225218 -0.0127849 0.000423 -0.0116536 0.00229875 0.0371095 2650 
1468 1 -0.00428151 -0.00179923 -0.0132955 0.000423 -0.0197001 -0.0470204 -0.0326717 2650 
3153 1 -0.00168054 -0.00233429 -0.0130477 0.000116 -0.0842498 -0.0374178 0.0430189 2650 
3551 1 -0.00628992 0.000197215 -0.0131249 0.000423 -0.015336 0.00523015 0.00637389 2650 
541 1 -0.00620875 0.000641854 -0.0127618 4.2e-05 -0.0143735 0.00954058 0.00936495 2650 
4126 1 -0.00445944 3.2922e-05 -0.0133115 0.000116 -0.0261531 0.0084042 0.00402279 2650 
2525 1 -0.004063 0.00146968 -0.013231 4.2e-05 0 -0.011753 0 2650 
2619 1 -0.005851 0.00228568 -0.012854 0.000116 0 -0.011753 0 2650 
2609 1 -0.00886 0.00300968 -0.013248 0.000116 0 -0.011753 0 2650 
3880 1 -0.010277 0.00320168 -0.012913 0.000423 0 -0.011753 0 2650 
3645 1 -0.00555714 0.00334499 -0.0126744 0.000423 -0.0357151 -0.0039173 0.0164321 2650 
3917 1 -0.003984 0.00377068 -0.012703 0.000116 0 -0.011753 0 2650 
2918 1 -0.00769801 0.00467368 -0.0133161 0.000116 -0.0132236 0.0205789 -0.0380223 2650 
1032 1 -0.00762488 0.00402157 -0.0131068 0.000423 -0.0173367 -0.00904293 -0.0556269 2650 
2912 1 -0.00572493 0.00461462 -0.0131695 0.000116 0.0344903 0.00459865 -0.0369002 2650 
3322 1 -0.00366548 0.00444508 -0.0131616 0.000423 0.0155165 0.0110838 0.0251988 2650 
2059 1 -0.003583 0.00397968 -0.012756 0.000116 0 -0.011753 0 2650 
2596 1 -0.00903035 0.00550323 -0.0132061 0.000116 -0.0442582 -0.0431064 0.0384975 2650 
450 1 -0.00652174 0.00501594 -0.013286 0.000656 0.0112424 0.0469319 0.00733295 2650 
104 1 -0.00291091 0.00572787 -0.0132919 4.2e-05 -0.00674979 0.0150481 0.0116551 2650 
1427 1 -0.002948 0.00631068 -0.013376 4.2e-05 0 -0.011753 0 2650 
4078 1 -0.00891888 0.00634513 -0.0127209 0.000423 -0.0196946 -0.00953845 0.00130892 2650 
2913 1 -0.00739266 0.00690967 -0.0131142 0.000116 -0.028239 -0.0119827 -0.0130286 2650 
1237 1 -0.0101888 0.00765839 -0.0130087 0.000423 -0.00897314 0.0100083 -0.0434947 2650 
3259 1 -0.0086503 0.00763482 -0.0130633 0.000116 -0.0089878 -0.00810535 0.00538998 2650 
1584 1 -0.00139125 0.00714195 -0.0133725 0.000423 -0.00963006 0.0395817 0.04039 2650 
1795 1 -0.00875141 0.00830817 -0.0129726 0.000423 0.00165908 -0.0118589 -0.000959055 2650 
1769 1 -0.00630201 0.00863417 -0.0133174 0.000656 -0.0139492 0.00030421 -0.000268195 2650 
1250 1 -0.00778131 0.00888802 -0.0129469 0.000423 -0.0109693 -0.0170514 -0.0143142 2650 
205 1 -0.000744 0.00902668 -0.01334 0.000116 0 -0.011753 0 2650 
2483 1 -0.00908525 0.00953457 -0.0131668 0.000116 0.00258646 -0.0218162 0.0129531 2650 
949 1 -0.00639815 0.0108144 -0.0127165 0.000116 -0.0176518 0.0277962 -0.00593252 2650 
1775 1 -0.00822759 0.0117763 -0.0130416 0.000423 -7.29146e-05 -0.011186 -0.000346901 2650 
959 1 -0.00712883 0.0123422 -0.012858 0.000116 -0.0723779 0.0623805 -0.0339909 2650 
3932 1 -0.00495159 0.0201925 -0.0130128 0.000116 0.03152 0.0411719 0.0597923 2650 
545 1 -0.002328 -0.00250532 -0.012432 4.2e-05 0 -0.011753 0 2650 
2172 1 -0.00863859 -0.00166124 -0.012342 0.000116 0.0554355 0.00150652 -0.0523356 2650 
800 1 -0.00671378 -0.0017575 -0.0123839 0.000423 0.0734004 0.0256016 0.0971795 2650 
2468 1 -0.003167 -0.00213232 -0.012131 0.000423 0 -0.011753 0 2650 
1763 1 -0.001143 -0.00184432 -0.012442 0.000656 0 -0.011753 0 2650 
2645 1 -0.005824 -0.00115317 -0.0118917 0.000656 -0.0337661 -0.0137944 0.0452096 2650 
3191 1 -0.00703603 -0.0003104 -0.012533 0.000656 -0.0197381 0.00193499 -0.0014393 2650 
1422 1 -0.003881 1.67942e-06 -0.012349 4.2e-05 0 -0.011753 0 2650 
388 1 -0.00736859 0.00150992 -0.0121031 0.000116 0.0212466 0.0335067 0.0250458 2650 
3201 1 -0.00624658 0.00125084 -0.0123995 0.000423 -0.00608722 0.0216696 0.0089772 2650 
1799 1 -0.003231 0.000810113 -0.0120571 0.000423 7.10678e-05 -0.0118308 4.63239e-05 2650 
3389 1 -0.010415 0.00226768 -0.012026 0.000116 0 -0.011753 0 2650 
3956 1 -0.00903563 0.00168255 -0.0123063 0.000656 -0.000640959 -0.0104529 -0.000368355 2650 
2285 1 -0.0117014 0.00388815 -0.0118483 0.000116 0.0175306 0.0103543 0.003719 2650 
411 1 -0.0104168 0.00457914 -0.0120899 0.000116 -0.00787832 -0.00657823 -8.20909e-05 2650 
3826 1 -0.009208 0.00416268 -0.012552 0.000116 0 -0.011753 0 2650 
708 1 -0.0027729 0.00453824 -0.0122244 0.000423 -0.00318183 -0.00599768 -0.010405 2650 
3380 1 -0.00222475 0.00447991 -0.01241 0.000116 -0.00133046 -0.0120531 0.0302183 2650 
2194 1 -0.00231314 0.0046498 -0.0124837 4.2e-05 0.00491046 0.00111596 0.00228026 2650 
2957 1 -0.00176794 0.00424458 -0.0122597 4.2e-05 0.0205169 0.0248349 -0.000218849 2650 
3316 1 -0.008979 0.00491568 -0.012376 0.000423 0 -0.011753 0 2650 
1261 1 -0.00744827 0.00495482 -0.0124283 0.000423 -0.000148786 -0.00207045 -0.0014312 2650 
3362 1 -0.00266498 0.00511315 -0.0122799 0.000116 0.000350619 -0.00253681 -0.00404217 2650 
2219 1 -0.00350357 0.00609315 -0.0125048 0.000423 0.0573797 0.046564 0.0166916 2650 
3446 1 -0.002592 0.00592268 -0.012627 0.000423 0 -0.011753 0 2650 
3030 1 -0.001189 0.00642568 -0.012596 0.000116 0 -0.011753 0 2650 
445 1 -0.00959881 0.007317 -0.0121055 0.000656 -0.00558309 0.00348593 -0.0224949 2650 
4318 1 -0.0085981 0.00768709 -0.0123303 0.000423 -0.00589465 -0.00768269 0.00318441 2650 
1495 1 -0.004483 0.00789368 -0.012591 0.000116 0 -0.011753 0 2650 
1519 1 -0.00269056 0.0078445 -0.0125789 0.000116 -0.0494896 0.0341374 0.0501115 2650 
2344 1 -0.00100126 0.0075568 -0.0119418 0.000423 0.00597873 -0.023338 -0.0226217 2650 
3847 1 -0.00965285 0.00859658 -0.0124246 0.000656 0.00191913 0.0130802 -0.00623859 2650 
3173 1 -0.004958 0.00855468 -0.012321 4.2e-05 0 -0.011753 0 2650 
3684 1 -0.00432269 0.00814492 -0.0124292 0.000116 0.00413104 -0.0230128 -0.00941473 2650 
4002 1 -0.000443 0.00858668 -0.01223 0.000116 0 -0.011753 0 2650 
4179 1 -0.0071224 0.00894256 -0.0121401 0.000423 -0.00767678 -0.0221048 -0.00852388 2650 
2630 1 -0.001036 0.00876268 -0.012074 4.2e-05 0 -0.011753 0 2650 
289 1 -0.00132512 0.00975846 -0.012395 0.000116 -0.0188061 -0.000940224 -0.0594549 2650 
1423 1 -0.00145 0.0102427 -0.012526 4.2e-05 0 -0.011753 0 2650 
3106 1 -0.00725973 0.0118127 -0.012243 0.000423 -0.042507 0.0242048 -0.0146805 2650 
1802 1 -0.00414512 0.0124591 -0.0120384 0.000423 0.00500259 -0.000364755 -0.0111755 2650 
2205 1 -0.00511075 0.0132765 -0.0120362 0.000656 -0.00206311 0.000112593 -0.00429342 2650 
1143 1 -0.000837757 0.0144357 -0.0125065 0.000423 0.0070315 0.0110531 -0.00616027 2650 
675 1 -0.00514344 0.0212539 -0.012294 0.000423 -0.0171714 0.0807922 0.0289201 2650 
786 1 -0.0676167 -0.0122042 -0.0114426 0.000423 -0.531401 -0.23088 3.14016 2650 
4373 1 -0.0679896 -0.00653501 -0.0115161 4.2e-05 -0.538366 -0.137957 3.17846 2650 
15 1 -0.00179557 -0.00356354 -0.0118437 0.000423 -0.0634039 -0.122237 -0.778782 2650 
3256 1 -0.00189418 -0.00386252 -0.0111544 0.000116 -0.145668 -0.217769 -0.684025 2650 
2413 1 -0.00894782 -0.00285718 -0.0112914 4.2e-05 -0.0826713 -0.0311639 0.0536157 2650 
3505 1 -0.006952 -0.00283632 -0.011235 4.2e-05 0 -0.011753 0 2650 
1022 1 -0.00226635 -0.0027809 -0.0118155 0.000423 -0.0836791 0.078608 -0.171488 2650 
440 1 -0.00061 -0.00153432 -0.011485 4.2e-05 0 -0.011753 0 2650 
756 1 -0.0060726 -0.000311939 -0.0118246 0.000116 0.041834 0.0697036 0.0154272 2650 
2939 1 -0.00937048 4.85814e-05 -0.0113529 0.000116 -0.00341769 -0.0275913 0.0148239 2650 