ITEM: TIMESTEP
11013960
ITEM: NUMBER OF ATOMS
4283
ITEM: BOX BOUNDS ff ff ff
-0.15 0.15
-0.15 0.06
-0.15 0.15
ITEM: ATOMS id type x y z radius vx vy vz density 
1380 1 -0.00597042 -0.0580725 -0.0686249 0.000116 3.42785 -1.19476 -0.298225 2650 
4036 1 -0.00871842 -0.0556439 -0.0683302 0.000116 -1.12072 -0.388113 0.142995 2650 
3096 1 -0.00755248 -0.0555689 -0.0681609 0.000423 0.256343 -0.873333 -0.0284038 2650 
51 1 -0.000396182 -0.0520874 -0.0685769 0.000423 0.394985 0.147049 -0.0022819 2650 
1699 1 -0.0141455 -0.0623745 -0.0671033 0.000423 0.87624 0.0577566 -0.184952 2650 
1961 1 -0.0180859 -0.0603775 -0.0664638 0.000116 6.84712 0.686811 -1.79661 2650 
3265 1 -0.0167349 -0.0513504 -0.0668204 0.000116 2.30473 0.925295 -0.577211 2650 
3887 1 -0.0198187 -0.0457418 -0.0656519 0.000423 0.990856 -0.500454 -0.299115 2650 
1856 1 -0.0228211 -0.0626331 -0.0648441 0.000116 6.50487 -0.192429 2.41341 2650 
1832 1 -0.0228405 -0.0560958 -0.0649872 0.000116 3.17522 -2.87654 -1.11597 2650 
4338 1 -0.0230902 -0.0500003 -0.064899 0.000116 13.4811 -0.625404 -4.79639 2650 
1943 1 -0.0247568 -0.0585852 -0.0642816 0.000116 3.34361 0.117249 -1.28773 2650 
4305 1 -0.0343542 -0.0481428 -0.0593526 0.000423 -0.287813 0.110357 0.166591 2650 
3966 1 -0.0355544 -0.0600397 -0.0586416 0.000423 -0.582902 0.221828 0.353413 2650 
286 1 -0.0375621 -0.0514143 -0.0577418 0.000116 1.49114 -0.814158 -0.970011 2650 
2418 1 -0.0376832 -0.0455126 -0.057751 4.2e-05 -3.15132 0.567275 2.05627 2650 
3143 1 -0.0450645 -0.0573287 -0.0520981 0.000116 1.65206 -0.83802 -1.42902 2650 
1012 1 -0.0490838 -0.0465132 -0.0478929 0.000423 -0.207479 -0.314601 0.212638 2650 
1046 1 -0.0512026 -0.0586957 -0.0460794 0.000116 1.32912 0.57002 -1.47689 2650 
1805 1 -0.0521485 -0.0462416 -0.0445363 0.000423 -0.0357775 0.565386 0.0418925 2650 
1768 1 -0.053571 -0.0617275 -0.0424422 0.000656 -0.215941 -0.372555 0.272563 2650 
4306 1 -0.0563738 -0.0611385 -0.0387578 0.000423 7.44707 0.637685 -10.7761 2650 
1958 1 -0.0570036 -0.0625249 -0.0378833 0.000116 4.68363 3.81809 -2.93766 2650 
3260 1 -0.0584464 -0.0599419 -0.036456 0.000116 -0.3535 -0.14109 0.566731 2650 
2100 1 -0.0575582 -0.0450565 -0.0368544 0.000656 -0.726539 -0.337916 1.13469 2650 
2037 1 -0.05888 -0.0574113 -0.0357516 0.000116 4.55949 0.90532 -7.50911 2650 
908 1 -0.05833 -0.0453064 -0.0360633 0.000423 -0.719965 -0.324111 1.1645 2650 
3013 1 -0.0590899 -0.0552348 -0.0348042 0.000423 -0.251447 0.0314694 0.426902 2650 
1206 1 -0.0606723 -0.0480292 -0.0327731 4.2e-05 3.10345 3.371 -5.74536 2650 
3812 1 -0.0613157 -0.0457826 -0.0313912 0.000116 -0.55924 -0.253318 1.09235 2650 
2042 1 -0.0628852 -0.0524453 -0.0281153 0.000116 0.70171 0.324851 -1.56951 2650 
319 1 -0.0631008 -0.0533794 -0.0276281 0.000116 2.82428 0.705979 -6.45047 2650 
1712 1 -0.0638302 -0.0452653 -0.0258983 0.000116 0.00941526 0.102863 -0.0232053 2650 
3547 1 -0.064631 -0.0623387 -0.0229298 0.000423 0.176966 0.0275905 -0.49782 2650 
1107 1 -0.0647046 -0.0611734 -0.0220117 0.000656 -0.0742611 0.115815 0.218295 2650 
1231 1 -0.0650682 -0.0592617 -0.0216588 0.000423 1.64724 0.597529 -4.94871 2650 
2123 1 -0.0660468 -0.0574565 -0.0184601 0.000423 1.01812 0.900362 -3.64265 2650 
2165 1 -0.066733 -0.058113 -0.0170803 0.000116 1.28844 -1.23268 -5.03396 2650 
3549 1 -0.0669193 -0.0516991 -0.014992 0.000423 0.15326 0.165239 -0.684102 2650 
2198 1 -0.0545371 -0.0611952 -0.0136719 4.2e-05 0.42583 0.158035 -10.93 2650 
1419 1 -0.0676375 -0.0622262 -0.0114841 0.000116 2.10427 -0.448265 -0.789356 2650 
1833 1 -0.0655754 -0.0611512 -0.0105873 0.000116 4.72655 1.15471 -6.77693 2650 
2186 1 -0.0684562 -0.0597463 -0.00766653 0.000116 0.169513 -0.000923864 -1.51362 2650 
1407 1 -0.0685899 -0.0569873 -0.00636043 0.000116 0.28287 0.907218 -3.05043 2650 
786 1 -0.0685234 -0.0607649 -0.00273683 0.000423 0.114042 -0.651852 -2.85532 2650 
1865 1 -0.0689325 -0.0477635 -0.00187447 4.2e-05 0.222485 1.38455 -8.18176 2650 
1377 1 -0.0687789 -0.0477042 0.0038067 0.000116 -0.0954917 -0.419284 -1.72533 2650 
3577 1 -0.0687566 -0.0524615 0.00419085 0.000116 -0.500632 -0.30496 -8.21354 2650 
4331 1 -0.0686953 -0.0478629 0.00509729 0.000116 -0.22921 0.82937 -3.08903 2650 
2314 1 -0.0681092 -0.0619747 0.00568821 0.000656 -0.271246 0.0391973 -3.24783 2650 
2829 1 -0.0686218 -0.0464667 0.00600635 0.000116 0.037583 -0.210344 0.429381 2650 
400 1 -0.0621875 -0.0623623 0.00875828 0.000116 -1.37121 0.261034 -11.1587 2650 
947 1 -0.0683054 -0.0576857 0.00890999 0.000116 -0.225564 0.443538 -1.72921 2650 
420 1 -0.0681441 -0.0582045 0.0100703 0.000116 -0.029628 -0.775264 -0.200488 2650 
2051 1 -0.0680099 -0.0542931 0.0109395 0.000116 -0.29925 -1.05403 -1.86041 2650 
3505 1 -0.0679673 -0.0463533 0.0116469 4.2e-05 -0.260174 1.51401 -1.51829 2650 
577 1 -0.0669505 -0.0561545 0.0148518 0.000423 0.245327 -0.358742 1.10591 2650 
3139 1 -0.0632745 -0.0597688 0.0272282 0.000116 -4.47442 0.0569793 -10.3979 2650 
2052 1 -0.0630756 -0.0503739 0.0276856 0.000116 -0.973414 0.428981 -2.21771 2650 
2234 1 -0.0613552 -0.0505633 0.0306347 0.000423 0.0825795 -0.239386 0.16539 2650 
3058 1 -0.0595586 -0.0459534 0.0346091 0.000116 -0.914776 -0.657743 -1.57423 2650 
2460 1 -0.0588877 -0.0479809 0.0351452 0.000423 -0.384916 -1.3456 -0.644951 2650 
1227 1 -0.0586044 -0.0506998 0.0356156 0.000423 -0.416369 0.251533 -0.685123 2650 
4068 1 -0.0553942 -0.0463456 0.0404281 0.000423 0.0303318 -0.322868 0.0415603 2650 
3640 1 -0.0540656 -0.0533622 0.0421883 0.000423 -0.334517 -1.2751 -0.428694 2650 
3930 1 -0.0543731 -0.0512442 0.042292 0.000116 -10.4735 0.230219 -13.4654 2650 
4307 1 -0.0534533 -0.0621695 0.0429618 0.000423 -2.85751 0.177704 -3.55531 2650 
4229 1 -0.0533375 -0.0618367 0.0435905 0.000116 -2.05365 -0.18064 -2.51286 2650 
917 1 -0.0530255 -0.0566314 0.0434886 0.000423 -2.13062 0.745225 -2.59787 2650 
4023 1 -0.0530916 -0.0555277 0.0438896 0.000116 -1.02796 -0.656818 -1.24348 2650 
4098 1 -0.0498747 -0.0519262 0.0470687 0.000423 0.587775 -0.0466642 0.622816 2650 
2247 1 -0.0455728 -0.055729 0.0512453 0.000423 -2.26497 0.68281 -2.01425 2650 
1609 1 -0.0423701 -0.0481052 0.0543121 0.000116 -4.70845 -0.539398 -3.67317 2650 
1208 1 -0.0422985 -0.0552185 0.0544614 4.2e-05 -2.41539 -0.0502971 -1.87596 2650 
312 1 -0.0391966 -0.0618807 0.0565595 0.000116 -3.38745 0.511222 -2.51502 2650 
1752 1 -0.0123793 -0.0621668 0.0587081 4.2e-05 -0.66486 0.303514 -0.100525 2650 
1955 1 -0.0364716 -0.0557991 0.0584367 0.000116 -1.44391 0.055711 -0.901175 2650 
3090 1 -0.0343525 -0.0531107 0.0593536 0.000423 0.755972 0.0821331 0.437539 2650 
3747 1 -0.0300037 -0.0621729 0.0616663 0.000423 0.771879 -1.09922 0.375557 2650 
2527 1 -0.0290949 -0.0618749 0.0625195 4.2e-05 1.59194 1.08191 0.740848 2650 
3464 1 -0.0282269 -0.0600478 0.0628352 0.000116 -3.55097 -1.63917 -1.59517 2650 
78 1 -0.0229162 -0.0614597 0.0649605 0.000116 -3.84109 -0.142953 -1.35502 2650 
201 1 -0.0127374 -0.0539955 0.0676963 0.000116 3.2431 1.04601 0.610205 2650 
2672 1 -0.000673219 -0.0617712 0.0685436 0.000423 -4.74944 -0.140461 -1.22456 2650 
800 1 -0.0097628 -0.0605063 0.0678798 0.000423 -6.03252 -0.538464 -0.867627 2650 
2177 1 -0.000891159 -0.0604714 0.0688784 0.000116 -10.4504 0.30031 -0.135209 2650 
2269 1 -0.00313733 -0.0555518 0.0688126 0.000116 -0.66586 -0.567877 -0.0303581 2650 
2382 1 -0.000598985 -0.0252474 -0.0688815 0.000116 -0.463386 -1.06307 0.00402955 2650 
1734 1 -0.00216092 -0.0140211 -0.0688502 0.000116 -2.32274 -0.236606 0.0729011 2650 
91 1 -0.000337822 -0.00400358 -0.0688833 0.000116 -2.69867 -0.904419 0.0132358 2650 
1183 1 -0.00201514 -0.00066191 -0.0688546 0.000116 -0.402386 0.0547419 0.0117765 2650 
981 1 -0.000669571 -0.0239653 -0.0683455 4.2e-05 3.68765 -2.64072 -1.2159 2650 
2711 1 -0.00920243 -0.0185315 -0.0682667 0.000116 1.49955 -0.401985 -0.202141 2650 
1550 1 -0.00712569 -0.0184892 -0.0679737 0.000656 -0.524458 0.545776 0.054979 2650 
528 1 -0.0115905 -0.0138803 -0.067902 0.000116 -1.29184 0.22926 0.22051 2650 
2538 1 -8.18033e-05 -0.0133462 -0.0683462 0.000656 -2.16715 -0.102563 0.00259385 2650 
2118 1 -0.00280727 -0.0107367 -0.0685206 0.000423 -1.12534 -0.251252 0.0461051 2650 
2560 1 -0.000130336 -0.00957536 -0.0685779 0.000423 -2.14324 0.0244984 0.00407334 2650 
3319 1 -0.000885212 -0.0087133 -0.0685723 0.000423 -2.08808 0.146405 0.0269554 2650 
3619 1 -0.00830517 -0.00823621 -0.0684561 4.2e-05 -2.38525 -1.47142 0.289381 2650 
2873 1 -0.00517994 -0.00489486 -0.0683821 0.000423 -0.356418 0.0490128 0.0269986 2650 
2248 1 -0.0138421 -0.0149811 -0.0671665 0.000423 -0.499326 -0.293014 0.102904 2650 
2367 1 -0.0153204 -0.00411385 -0.0671588 0.000116 -0.811208 -0.267434 0.185055 2650 
2634 1 -0.0154332 -0.00216765 -0.0672088 4.2e-05 1.05543 -0.33019 -0.242358 2650 
1020 1 -0.012762 -0.0012143 -0.0673801 0.000423 -2.35337 0.0755349 0.445736 2650 
1417 1 -0.0175472 -0.0435295 -0.0666117 0.000116 -0.512628 0.238723 0.135039 2650 
1453 1 -0.0153869 -0.016377 -0.0668296 0.000423 -1.24925 0.127229 0.287627 2650 
2349 1 -0.0170443 -0.0154366 -0.0664262 0.000423 0.550759 0.217251 -0.141319 2650 
4110 1 -0.020104 -0.039589 -0.0655651 0.000423 -1.21462 -0.308337 0.372435 2650 
3743 1 -0.0181388 -0.0213603 -0.0661357 0.000423 -0.157533 0.171046 0.043206 2650 
827 1 -0.0232956 -0.0222499 -0.0648254 0.000116 -0.307262 -0.829803 0.110417 2650 
152 1 -0.0208601 -0.00737624 -0.0653285 0.000423 -1.89674 -0.124563 0.605649 2650 
2703 1 -0.0229942 -0.00547573 -0.064933 0.000116 -0.787919 -0.317837 0.27902 2650 
13 1 -0.0224974 -0.00425478 -0.0647828 0.000423 -0.915877 0.249225 0.31806 2650 
534 1 -0.0221144 -0.0031449 -0.0652378 0.000116 3.00029 3.36792 -1.01704 2650 
2376 1 -0.0223007 -0.00375271 -0.0651744 0.000116 -2.1903 -0.112322 0.749457 2650 
1886 1 -0.0202874 -0.00289932 -0.0655086 0.000423 -1.51088 -0.256761 0.467905 2650 
491 1 -0.0214571 -0.000429681 -0.0651348 0.000423 -1.85525 -0.0123539 0.611167 2650 
4052 1 -0.0241952 -0.0160685 -0.064574 4.2e-05 -0.264528 1.61751 0.0991161 2650 
2139 1 -0.0237091 -0.00275317 -0.0643492 0.000423 -0.97559 0.333876 0.35945 2650 
2790 1 -0.0254677 -0.0332132 -0.0636737 0.000423 -1.34714 -0.0262567 0.538818 2650 
2203 1 -0.0254061 -0.0305101 -0.0634492 0.000656 6.10538 -1.10534 -2.44469 2650 
1278 1 -0.0268261 -0.0137405 -0.0634459 0.000116 0.37429 2.01588 -0.158256 2650 
3741 1 -0.0270485 -0.0384844 -0.0630184 0.000423 -0.726252 -0.163292 0.311719 2650 
1341 1 -0.0275591 -0.0374233 -0.0627969 0.000423 -1.3668 -0.20028 0.599836 2650 
4373 1 -0.0287221 -0.0135839 -0.0626917 4.2e-05 -5.2317 -1.24261 2.3969 2650 
1616 1 -0.0295662 -0.04001 -0.0622162 0.000116 -0.509242 -0.586188 0.242001 2650 
1462 1 -0.029658 -0.00814358 -0.0618332 0.000423 -1.13149 0.0917863 0.542716 2650 
322 1 -0.03065 -0.00177964 -0.0617721 4.2e-05 -2.76642 0.450478 1.37264 2650 
2959 1 -0.0309219 -0.00122461 -0.0616364 4.2e-05 -2.83145 0.235961 1.42049 2650 
2310 1 -0.0323764 -0.0377937 -0.0608849 4.2e-05 -1.77553 -1.82113 0.944161 2650 
2091 1 -0.0306641 -0.0348061 -0.0610811 0.000656 -0.544202 -0.294894 0.273202 2650 
4048 1 -0.0349787 -0.0243309 -0.0594281 4.2e-05 9.26336 3.49213 -5.4523 2650 
2208 1 -0.0337919 -0.00444794 -0.059408 0.000656 -2.02284 -0.172636 1.15062 2650 
4150 1 -0.0348111 -0.000913792 -0.0594408 0.000116 -1.337 0.000481084 0.783003 2650 
822 1 -0.034102 -0.0012294 -0.0594979 0.000423 -1.32206 -0.0646652 0.757755 2650 
1132 1 -0.0355951 -0.00597917 -0.0586169 0.000423 -1.3823 0.0560509 0.839399 2650 
3479 1 -0.0355473 -0.00457049 -0.0590035 0.000116 -0.860894 0.201942 0.518656 2650 
4297 1 -0.0349043 -0.00309884 -0.0590309 0.000423 -2.01353 -0.0714161 1.19058 2650 
4213 1 -0.034659 -0.000465086 -0.0591752 0.000423 -1.32926 -0.0113948 0.778548 2650 
3069 1 -0.0387435 -0.0403284 -0.0570452 4.2e-05 2.80054 -2.05744 -1.90205 2650 
3393 1 -0.0311983 -0.0282587 -0.057196 4.2e-05 -1.48683 -1.46486 -3.4027 2650 
902 1 -0.03886 -0.0432798 -0.0565053 0.000423 0.103698 0.293471 -0.0713154 2650 
3582 1 -0.0390537 -0.0198464 -0.0555433 0.000116 0.337083 0.494272 -1.69697 2650 
3963 1 -0.0404968 -0.0047695 -0.0553441 0.000423 3.21182 1.14925 -2.35018 2650 
1239 1 -0.0415596 -0.0380863 -0.0545504 0.000423 -0.559558 -0.389437 0.426303 2650 
394 1 -0.0414718 -0.034783 -0.055001 0.000116 -0.0597927 1.09475 0.0450849 2650 
3673 1 -0.0416102 -0.0335298 -0.0545118 0.000423 -1.70905 -1.84197 1.30457 2650 
2765 1 -0.0414647 -0.0314854 -0.0546226 0.000423 -0.405603 0.786252 0.307889 2650 
1082 1 -0.0422529 -0.0411655 -0.0544033 0.000116 -0.50078 -0.867291 0.388936 2650 
3748 1 -0.0416968 -0.0370883 -0.0544456 0.000423 -0.900014 -0.203698 0.68927 2650 
3636 1 -0.0421997 -0.0239085 -0.0540568 0.000423 -1.18175 0.287733 0.922536 2650 
2714 1 -0.0426019 -0.0131354 -0.0541304 0.000116 6.96312 1.64374 -5.48014 2650 
440 1 -0.0428481 -0.00566873 -0.0540301 4.2e-05 -2.50866 -0.129939 1.98948 2650 
3882 1 -0.0421012 -0.00683249 -0.0537002 0.000423 -6.39898 -0.291985 -8.19391 2650 
1047 1 -0.0442204 -0.00463505 -0.0528165 0.000116 -1.20619 -0.254942 1.00987 2650 
2875 1 -0.0444985 -0.000866817 -0.0521808 0.000423 -1.53391 -0.0608687 1.30808 2650 
2143 1 -0.0453832 -0.0396862 -0.0514131 0.000423 -1.01934 -0.27176 0.899788 2650 
2018 1 -0.0460009 -0.0355423 -0.0508613 0.000423 -1.06444 -0.143586 0.96272 2650 
1008 1 -0.0456071 -0.0310879 -0.0512146 0.000423 -0.20948 -0.578957 0.186544 2650 
1180 1 -0.0464546 -0.0272632 -0.050805 0.000116 -0.108192 1.43029 0.29843 2650 
502 1 -0.0459965 -0.0183681 -0.0512772 0.000116 -0.796796 -0.226917 0.71474 2650 
1224 1 -0.0456003 -0.00145719 -0.0512207 0.000423 -1.54433 0.0699692 1.37487 2650 
3904 1 -0.0459912 -0.000567007 -0.0512819 0.000116 -1.40723 0.205196 1.26205 2650 
343 1 -0.0467424 -0.000984118 -0.0501806 0.000423 -1.43135 -0.0258073 1.33328 2650 
1945 1 -0.048368 -0.015151 -0.0490465 0.000116 -1.30856 0.235748 1.29045 2650 
3477 1 -0.0480359 -0.002444 -0.0493718 0.000116 -2.01464 2.2458 1.96013 2650 
4006 1 -0.0478529 -0.000871521 -0.0493342 0.000116 2.61452 -0.394644 -3.88892 2650 
3431 1 -0.0497351 -0.0339598 -0.0472162 0.000423 -0.807561 0.0988064 0.850643 2650 
2112 1 -0.0497548 -0.0303086 -0.0471954 0.000423 -0.383588 -0.364724 0.40439 2650 
1640 1 -0.0504612 -0.0104016 -0.0469986 4.2e-05 1.09547 -0.558915 -1.17618 2650 
1612 1 -0.0506036 -0.000807578 -0.0467364 0.000116 -0.0877573 -0.0474402 0.0950188 2650 
358 1 -0.0515074 -0.0289282 -0.0452763 0.000423 1.4826 0.787903 -1.68665 2650 
2846 1 -0.0526991 -0.013937 -0.0444749 4.2e-05 -1.52452 -0.557542 1.80643 2650 
3330 1 -0.0521766 -0.00210544 -0.0445034 0.000423 -1.23118 -0.108363 1.44346 2650 
2837 1 -0.0529351 -0.038218 -0.0440783 0.000116 0.899554 -1.39743 -1.0803 2650 
2340 1 -0.0529201 -0.0385105 -0.0436166 0.000423 -0.176313 0.304205 0.213921 2650 
365 1 -0.0529976 -0.0224007 -0.0435224 0.000423 -0.643416 -0.0740997 0.783493 2650 
3375 1 -0.0536017 -0.0358413 -0.0432652 0.000116 0.76957 2.30099 -0.953428 2650 
3196 1 -0.0537663 -0.00621194 -0.0425692 0.000423 -1.30798 -0.190982 1.65203 2650 
3943 1 -0.0551422 -0.0350212 -0.0411827 4.2e-05 2.33297 -2.45113 -3.26677 2650 
2717 1 -0.0554337 -0.0351316 -0.0408917 0.000116 1.96985 -2.74971 -2.67037 2650 
3688 1 -0.0555802 -0.0336204 -0.0405425 0.000116 -0.404696 -0.24217 3.28087 2650 
3543 1 -0.0551162 -0.0333766 -0.0407975 0.000423 -0.432723 -0.287035 0.63156 2650 
3881 1 -0.0554563 -0.0293876 -0.0403428 0.000423 -0.607671 -0.248191 0.835321 2650 
733 1 -0.0558279 -0.00462191 -0.0403518 0.000116 -0.910887 0.0572571 1.26024 2650 
1404 1 -0.0559729 -0.0297535 -0.0401504 0.000116 0.168772 -0.640427 -0.235282 2650 
3066 1 -0.0413421 -0.0205515 -0.0403498 4.2e-05 2.5085 -0.160083 -8.4102 2650 
1915 1 -0.055652 -0.0158651 -0.0400725 0.000423 -1.07511 -0.123971 1.49309 2650 
1968 1 -0.0516198 -0.000559314 -0.0396566 0.000116 1.71358 -0.174087 -5.56416 2650 
1528 1 -0.0582055 -0.0123196 -0.0368394 0.000116 -0.172948 1.40023 0.273254 2650 
1202 1 -0.0419969 -0.0252451 -0.0363162 4.2e-05 2.69011 -0.999281 -7.17548 2650 
3418 1 -0.0584141 -0.0132916 -0.0359268 0.000423 -0.24487 1.30628 0.398139 2650 
856 1 -0.0576121 -0.0207294 -0.035412 0.000116 7.44318 0.0528243 -9.62557 2650 
1083 1 -0.0605506 -0.00195939 -0.0328427 0.000116 -0.819617 -0.494339 1.51109 2650 
453 1 -0.0605947 -0.000729282 -0.0321128 0.000423 -1.02922 -0.0515325 1.94208 2650 
3807 1 -0.0615748 -0.0213139 -0.0308799 0.000116 -0.543479 0.0999683 1.0837 2650 
3426 1 -0.0611458 -0.0102275 -0.0310505 0.000423 -0.611709 -0.0385175 1.2046 2650 
1922 1 -0.0610845 -0.00873191 -0.031171 0.000423 -0.645046 0.0544728 1.26407 2650 
4187 1 -0.060967 -0.000423201 -0.0314002 0.000423 -0.997604 0.00165694 1.93642 2650 
2396 1 -0.0613527 -0.000119087 -0.0310792 0.000116 -1.11998 0.618835 1.85439 2650 
2476 1 -0.0619358 -0.0392355 -0.0301494 0.000116 0.110517 -0.781498 -0.227036 2650 
1938 1 -0.0616302 -0.0231045 -0.0307691 0.000116 0.0349539 -0.269095 -0.0700121 2650 
2775 1 -0.0616297 -0.00327137 -0.0300787 0.000423 -0.693401 -0.159163 1.42074 2650 
1325 1 -3.18155e-05 -0.0106246 -0.0683462 0.000656 -2.09333 0.0285009 0.00097445 2650 
2212 1 -0.0616191 -0.0416703 -0.0295645 0.000656 -0.500989 -0.315169 1.12034 2650 
4308 1 -0.0627747 -0.0290125 -0.0276094 0.000423 -0.752387 -0.0043276 1.71068 2650 
3692 1 -0.0628651 -0.0265938 -0.0281602 0.000116 0.360999 -0.790431 -0.805897 2650 
871 1 -0.0637624 -0.0185793 -0.0262595 4.2e-05 0.0429092 0.0478128 -0.104191 2650 
2131 1 -0.0631906 -0.0139372 -0.0266438 0.000423 -0.421465 0.35423 0.99958 2650 
848 1 -0.0641377 -0.00595952 -0.0251272 0.000116 -1.16861 -0.13674 2.9829 2650 
138 1 -0.0641924 -0.0270448 -0.0241305 0.000423 -0.69421 -0.000930013 1.84675 2650 
631 1 -0.0648947 -0.0368739 -0.0231019 0.000116 1.93799 -2.20308 -5.44393 2650 
1136 1 -0.0650059 -0.0391204 -0.0218446 0.000423 -0.392218 -0.274889 1.16717 2650 
2589 1 -0.065377 -0.0182179 -0.0216995 0.000116 -1.00068 -0.115459 3.0149 2650 
1558 1 -0.065343 -0.0330162 -0.0208146 0.000423 -0.974156 -1.27259 3.05816 2650 
2998 1 -0.0653971 -0.0262048 -0.0206439 0.000423 -0.240563 -0.321539 0.762073 2650 
2353 1 -0.0654501 -0.0172726 -0.0204752 0.000423 -0.145885 0.207519 0.46633 2650 
1161 1 -0.0658597 -0.00828681 -0.0201871 0.000116 -0.672234 -0.43997 2.19314 2650 
3647 1 -0.0656173 -0.0057169 -0.0199329 0.000423 -0.687113 -0.110776 2.26191 2650 
378 1 -0.0656817 -0.000834979 -0.0197195 0.000423 -0.466212 0.0394987 1.55286 2650 
2848 1 -0.066121 -0.0273721 -0.019576 4.2e-05 0.17081 1.82755 -0.576936 2650 
2147 1 -0.0662376 -0.0101697 -0.0189103 0.000116 -0.164305 -0.683387 0.575517 2650 
4159 1 -0.0483513 -0.0044406 -0.0182808 4.2e-05 -7.40722 -0.124276 -2.80421 2650 
1379 1 -0.0667573 -0.0121294 -0.016985 0.000116 -0.789628 -0.398106 3.10353 2650 
606 1 -0.000183 0.00119069 -0.016592 0.000116 0 -0.011753 0 2650 
302 1 -0.00183162 0.0102878 -0.0166642 0.000116 -0.0434127 0.0256721 -0.0191129 2650 
213 1 -0.0665954 -0.0154698 -0.016396 4.2e-05 4.56473 0.353223 -8.22071 2650 
2013 1 -0.00301306 0.00311882 -0.015854 0.000423 -0.00154235 0.00221798 0.00156406 2650 
2301 1 -0.00434898 0.00333507 -0.0160163 4.2e-05 -0.00116259 -0.0070103 0.00459775 2650 
4227 1 -0.000345176 0.00346883 -0.0165758 0.000116 0.00593372 -0.017543 0.0130313 2650 
2283 1 -0.00353062 0.00457676 -0.0163727 0.000116 -0.00010552 0.00956354 0.000789399 2650 
889 1 -0.00121676 0.00464528 -0.015857 0.000656 0.0221019 0.0158351 0.0220207 2650 
2520 1 -0.000180059 0.00490115 -0.0165484 4.2e-05 0.00318265 0.000380138 0.00682554 2650 
3365 1 -0.00163075 0.00613609 -0.0164536 0.000116 0.015804 0.0241832 0.0212134 2650 
978 1 -0.002033 0.00623184 -0.0164371 0.000116 0.0180122 -0.00353228 -0.00159853 2650 
3934 1 -0.001977 0.00595269 -0.016218 0.000116 0 -0.011753 0 2650 
2726 1 -0.00056507 0.00914503 -0.0162719 0.000116 -0.00741369 0.00988612 -0.041436 2650 
3150 1 -0.00224528 0.0100852 -0.015945 0.000116 -0.0182263 -0.0087302 -0.0269448 2650 
938 1 -0.00153184 0.00993298 -0.016047 0.000116 -0.00119823 0.000558801 -0.00633771 2650 
1483 1 -0.00049218 0.0105265 -0.0164522 0.000423 -0.000431738 0.0094693 0.00416488 2650 
3007 1 -0.00295445 0.0115362 -0.0160226 0.000423 -0.00754521 0.0118776 -0.00214285 2650 
371 1 -0.000535994 0.0119718 -0.0162688 0.000423 -0.00963196 0.00951459 -0.00479058 2650 
188 1 -0.00319051 0.0135843 -0.0161207 0.000116 -0.0148612 0.0228045 0.00418427 2650 
2182 1 -0.00150548 0.0140585 -0.01616 0.000116 0.00266263 0.0360122 0.0211071 2650 
3051 1 -0.00276951 0.0143978 -0.0161032 0.000116 0.163555 -0.227841 -0.0207843 2650 
2713 1 -0.000702293 0.0159664 -0.015892 0.000116 0.00037122 0.035974 0.00535071 2650 
93 1 -0.00528748 0.0203841 -0.0158908 0.000116 0.0714693 0.0500535 -0.0191255 2650 
1717 1 -0.00404073 0.0309792 -0.0161207 0.000116 -0.014717 0.0706098 -0.0348682 2650 
2264 1 -0.000422467 0.051616 -0.0164761 0.000116 -0.0637592 0.11185 0.0253368 2650 
336 1 -0.0666481 -0.0295331 -0.0151403 0.000656 -0.401224 -0.0183065 1.7662 2650 
3785 1 -0.0672346 -0.00633971 -0.0149845 0.000116 -0.206683 -0.519072 0.927375 2650 
30 1 -0.0022894 -0.00238117 -0.0154159 0.000423 -0.0139928 -0.0214008 0.00726417 2650 
3599 1 -0.000196439 -0.00186223 -0.0153177 0.000116 0.0260231 -0.00977207 -0.00117121 2650 
3576 1 -0.000524774 -0.00138419 -0.0155215 0.000116 0.0561059 0.00120064 -0.0311085 2650 
379 1 -0.0668859 -0.000524743 -0.0151401 0.000423 -0.374519 0.136986 1.65455 2650 
999 1 -9.49882e-06 0.000418482 -0.0156414 0.000656 -0.00841998 -0.0161411 -0.0218233 2650 
2399 1 -0.002418 0.00140469 -0.015541 0.000116 0 -0.011753 0 2650 
3637 1 -0.00544417 0.00427828 -0.0152941 0.000423 -0.00704251 0.0124689 0.006236 2650 
1611 1 -0.00143546 0.00416061 -0.0151789 0.000116 0.0444256 -0.019621 0.0278665 2650 
1679 1 -0.00430465 0.00506119 -0.0157475 0.000423 -0.00453172 0.0157125 0.00260684 2650 
1827 1 -0.00414317 0.00700294 -0.0152558 0.000116 -0.00517626 -0.0457281 -0.00851659 2650 
3830 1 -0.006879 0.00750469 -0.015411 4.2e-05 0 -0.011753 0 2650 
2438 1 -0.00624582 0.00723979 -0.0151567 0.000423 -0.00472103 -0.000373669 -0.00125399 2650 
2313 1 -0.00330944 0.00787073 -0.0152277 0.000656 0.00750763 0.00230554 0.0199624 2650 
2851 1 -0.00650294 0.0118886 -0.0154659 4.2e-05 -0.241757 -0.132402 0.104339 2650 
70 1 -0.00245292 0.0133289 -0.0155387 0.000116 0.0560864 0.0328811 0.00597028 2650 
2793 1 -0.000911647 0.0132872 -0.0151942 0.000423 0.00400332 0.0260717 0.000754087 2650 
3838 1 -0.00517038 0.0142551 -0.0152884 0.000656 0.0059045 0.0308137 -0.0288407 2650 
2466 1 -0.00277204 0.0227986 -0.0153548 0.000423 0.0618857 0.0331724 -0.00268308 2650 
1053 1 -0.007469 -0.00243731 -0.014946 0.000116 0 -0.011753 0 2650 
3011 1 -0.000412911 -0.00258942 -0.0149051 0.000423 0.0180353 -0.0317081 -0.0392676 2650 
2666 1 -0.00772204 0.00254509 -0.0143241 0.000423 0.0108489 0.0809916 0.0205028 2650 
857 1 -0.00759837 0.00342317 -0.0147852 0.000116 -0.0623021 0.0193526 0.00200378 2650 
3787 1 -0.00684914 0.0039675 -0.0145865 0.000116 -0.0024271 -0.00223267 -0.0195234 2650 
1192 1 -0.00722213 0.0064539 -0.0147866 0.000116 0.00510585 0.0133553 0.012363 2650 
3364 1 -0.00678591 0.00855311 -0.0147579 0.000116 -0.00179506 0.0163753 -0.0232219 2650 
581 1 -0.00559838 0.00811105 -0.0144366 0.000423 0.00044719 0.0010883 0.00185987 2650 
233 1 -0.00327387 0.00871756 -0.0142721 0.000423 0.0114684 -0.00558491 0.0116559 2650 
2774 1 -0.00674779 0.0104555 -0.0143002 0.000423 -0.0403569 0.0250138 -0.0137733 2650 
86 1 -0.00505599 0.0109284 -0.0149331 0.000116 -0.0196067 0.0126222 0.000798653 2650 
2969 1 -0.00265953 0.0109883 -0.0148524 0.000656 -0.00667616 0.014076 0.00443217 2650 
438 1 -0.00877405 0.0110614 -0.0142872 4.2e-05 -0.0751478 0.00530319 -0.080919 2650 
2781 1 -0.00573036 0.0113165 -0.0148381 0.000423 0.00977627 0.0105103 0.0120467 2650 
1228 1 -0.00260249 0.01382 -0.0147081 0.000423 -0.0165339 0.0339414 0.00465399 2650 
2191 1 -0.00232082 0.0134648 -0.0144152 4.2e-05 -0.00764734 0.00298638 -0.00836536 2650 
3644 1 -0.00134222 0.0144018 -0.0146923 0.000423 -0.00424564 0.0328325 0.0133159 2650 
3165 1 -0.0079484 0.0206126 -0.0147648 0.000116 -0.224864 0.134576 0.0947812 2650 
2585 1 -0.00188455 0.0276988 -0.0149684 0.000116 -0.0221426 0.0759057 0.0070692 2650 
4234 1 -0.00479589 0.0340874 -0.0142481 0.000116 0.00512064 0.0508026 0.0366661 2650 
1195 1 -0.00298273 0.0351493 -0.0149758 0.000116 0.0557766 0.0782116 -0.0138054 2650 
2056 1 -0.00889316 0.0357371 -0.0142422 0.000116 -0.657629 0.119951 0.492882 2650 
456 1 -0.00809361 0.043179 -0.0143562 0.000423 -0.335744 -0.0141268 0.23372 2650 
4244 1 -0.00340289 -0.00319529 -0.0141445 0.000116 -0.0436806 -0.00994679 0.0125723 2650 
736 1 -0.00867683 -0.0017866 -0.014149 0.000116 -0.0307431 -0.0170391 0.0144389 2650 
509 1 -0.00784802 -0.00083318 -0.0141892 0.000116 -0.00480979 -0.0076817 0.0108723 2650 
1763 1 -0.00393445 -0.000748536 -0.0138161 0.000656 0.0110536 0.0386342 0.0470271 2650 
1991 1 -0.00847142 0.000171349 -0.0137853 0.000656 -0.0192457 -0.00223252 0.00858771 2650 
2609 1 -0.00846892 0.00119945 -0.0134773 0.000116 -0.00705034 0.0126459 0.00789545 2650 
2473 1 -0.00908362 0.00217463 -0.0135096 0.000423 -0.0442117 0.037927 0.0421781 2650 
2913 1 -0.00953819 0.00306916 -0.013423 0.000116 -0.0031719 -0.0208365 0.00893463 2650 
763 1 -0.00726945 0.00334126 -0.0137944 4.2e-05 -0.0107376 -0.0192397 -0.014763 2650 
220 1 -0.00330201 0.00370054 -0.013716 4.2e-05 0.00197382 0.00663681 0.00671825 2650 
1288 1 -0.002467 0.00513369 -0.014044 0.000116 0 -0.011753 0 2650 
3515 1 -0.00853831 0.00638248 -0.0136067 0.000656 -0.00454215 -0.00749919 0.00616721 2650 
1618 1 -0.00947552 0.00762 -0.0138465 0.000116 0.0059414 0.00192455 -0.00369393 2650 
1769 1 -0.00859041 0.00787907 -0.0136819 0.000656 -0.00763615 -0.00751468 0.00847974 2650 
4368 1 -9.36438e-05 0.00863933 -0.0141599 0.000116 0.0213285 8.20602e-05 -0.0260591 2650 
4190 1 -0.00928373 0.00941214 -0.0136228 0.000423 -0.00662655 0.00573878 0.00360714 2650 
842 1 -0.00782266 0.00886612 -0.0139043 0.000116 -0.0132472 -0.000581938 -0.0143857 2650 
1409 1 -0.000501181 0.00890049 -0.0139002 0.000116 -0.00338114 -0.0124825 -0.00177889 2650 
793 1 -4.20582e-05 0.00937913 -0.0138333 0.000423 -0.00384688 0.00642406 -0.0108379 2650 
3500 1 -0.00552513 0.010847 -0.0134239 4.2e-05 -0.0484689 0.00233787 0.0298831 2650 
2453 1 -0.00596353 0.0122837 -0.0141197 0.000423 0.00287214 0.0261989 -0.0126472 2650 
1802 1 -0.00324744 0.0123937 -0.0140438 0.000423 0.00500259 -0.000364755 -0.0111755 2650 
2345 1 -0.00165203 0.0137127 -0.0137513 0.000423 -0.0175833 0.0131789 -0.0282092 2650 
128 1 -0.00080445 0.0139719 -0.0139267 0.000423 -0.0122377 0.0336028 -0.0162643 2650 
3145 1 -0.00902148 0.0148781 -0.0141396 0.000116 0.00413084 0.0258652 0.0123186 2650 
3471 1 -0.00744 0.0147566 -0.0138429 0.000116 0.00654915 0.0415659 -0.0136084 2650 
1839 1 -0.00708953 0.0163398 -0.0136209 0.000116 -0.0676852 0.0211351 0.0188737 2650 
2924 1 -0.00923539 0.0168364 -0.0140425 0.000116 -0.0500795 0.0331408 0.0243033 2650 
3973 1 -0.00779171 0.0439989 -0.0135178 0.000423 -0.19124 0.14765 0.186719 2650 
4010 1 -0.00588941 0.0452198 -0.0136555 0.000116 0.0373387 0.0604042 0.0259593 2650 
2614 1 -0.00207661 0.0522005 -0.0137483 0.000116 -0.0792369 -0.0730102 0.0417576 2650 
2865 1 -0.0671025 -0.0298879 -0.012979 0.000656 -0.350967 -0.0581374 1.81453 2650 
2515 1 -0.0676901 -0.0135727 -0.0127698 0.000116 -0.426204 -0.38821 2.25923 2650 
2429 1 -0.0670837 -0.00151129 -0.0130757 0.000656 -0.358235 0.123673 1.8379 2650 
3191 1 -0.00991856 -0.000963822 -0.0126755 0.000656 -0.00910125 -0.0063157 0.00903986 2650 
2525 1 -0.00408052 -0.000603168 -0.0131323 4.2e-05 -0.0107216 0.0103625 0.0604028 2650 
2922 1 -0.00813588 0.00131871 -0.0133013 0.000116 -0.00925852 -0.000802711 0.00675368 2650 
2512 1 -0.00639517 0.00113618 -0.0132864 0.000116 0.018779 -0.0192413 0.00230208 2650 
3316 1 -0.0100895 0.00178455 -0.0129891 0.000423 -0.00552961 -0.00411585 -0.00161779 2650 
3917 1 -0.003984 0.00166169 -0.012703 0.000116 0 -0.011753 0 2650 
2059 1 -0.003583 0.00187069 -0.012756 0.000116 0 -0.011753 0 2650 
4374 1 -0.00951916 0.00293501 -0.0128481 4.2e-05 -0.00342399 0.0134868 -0.018776 2650 
1427 1 -0.002948 0.00420169 -0.013376 4.2e-05 0 -0.011753 0 2650 
3362 1 -0.00260207 0.00465794 -0.0130052 0.000116 0.000350619 -0.00253681 -0.00404217 2650 
2322 1 -0.00929364 0.00505644 -0.0132134 0.000656 -0.00463581 -0.0140818 0.00324309 2650 
4179 1 -0.00815781 0.00500893 -0.012868 0.000423 -0.000889884 -0.0208242 0.00186897 2650 
1388 1 -0.00752417 0.00557227 -0.0131197 0.000116 -0.039288 0.0021603 0.0169103 2650 
963 1 -0.00676787 0.00680768 -0.0126806 0.000116 0.00350227 -0.00324664 0.0156587 2650 
1204 1 -0.00337117 0.00671167 -0.0127812 4.2e-05 0.0310616 -0.0128877 0.0295818 2650 
1250 1 -0.0094547 0.00718124 -0.0132615 0.000423 -0.0126021 -0.0099031 0.00355829 2650 
4257 1 -0.0084225 0.00712876 -0.0127328 0.000116 -0.00578911 -0.00907208 0.00958653 2650 
2918 1 -0.00601381 0.00729755 -0.0128817 0.000116 0.0149777 0.0131491 0.0124233 2650 
2483 1 -0.00567639 0.00755259 -0.0133847 0.000116 0.00771374 -0.0189039 -0.0218467 2650 
3310 1 -0.00582143 0.00788438 -0.0127073 0.000423 -0.0174383 -0.0118405 -0.00571758 2650 
2912 1 -0.0052975 0.00730231 -0.0130475 0.000116 0.00196064 0.0151142 0.00117299 2650 
1241 1 -0.00970037 0.0081306 -0.0128493 0.000423 -0.00486634 -0.0127471 -0.0163098 2650 
2092 1 -0.00673682 0.00930021 -0.0128293 0.000656 -0.000409162 0.00160139 0.0230931 2650 
1237 1 -0.00982684 0.00980776 -0.0131066 0.000423 -0.00973792 0.00810698 -0.000416531 2650 
1775 1 -0.00852661 0.00981217 -0.0131379 0.000423 -0.00776621 -0.00915809 -0.000158119 2650 
1515 1 -0.00808594 0.00971699 -0.0127962 0.000116 0.0281776 0.0165381 -0.0135055 2650 
1476 1 -0.00756878 0.0101068 -0.0134188 0.000423 -0.00236736 0.00331055 0.000231161 2650 
289 1 -0.00357781 0.00976935 -0.0132965 0.000116 -0.00850769 0.000708308 0.0302001 2650 
3847 1 -0.00917867 0.0111674 -0.0132981 0.000656 0.00598667 0.0140257 0.000109329 2650 