ITEM: TIMESTEP
11337900
ITEM: NUMBER OF ATOMS
4279
ITEM: BOX BOUNDS ff ff ff
-0.15 0.15
-0.15 0.06
-0.15 0.15
ITEM: ATOMS id type x y z radius vx vy vz density 
3096 1 -0.00417433 -0.0615475 -0.0684509 0.000423 0.622507 0.267652 -0.0379622 2650 
3887 1 -0.0092163 -0.05132 -0.0679559 0.000423 1.02563 -0.562066 -0.139098 2650 
319 1 -0.0058743 -0.0497614 -0.0686332 0.000116 7.01602 -0.0354224 -0.600499 2650 
1616 1 -0.00569401 -0.0467995 -0.0686484 0.000116 2.79952 -0.711675 -0.232205 2650 
1082 1 -0.0172573 -0.0511643 -0.0666874 0.000116 2.60576 -1.01963 -0.674319 2650 
286 1 -0.0207346 -0.060383 -0.0656894 0.000116 1.69638 -0.892199 -0.535453 2650 
4036 1 -0.0202921 -0.0603848 -0.0658274 0.000116 -1.07967 -0.51482 0.332821 2650 
1419 1 -0.0232897 -0.0624095 -0.0647973 0.000116 10.8465 0.114544 -4.37566 2650 
1833 1 -0.024429 -0.0490236 -0.0644069 0.000116 5.89318 0.769044 -2.23523 2650 
3943 1 -0.0291039 -0.0565264 -0.0625154 4.2e-05 2.82929 -1.78551 -1.31717 2650 
2198 1 -0.0282943 -0.0531753 -0.0628737 4.2e-05 6.16875 0.854764 -2.93566 2650 
3577 1 -0.0294597 -0.0589633 -0.0622668 0.000116 6.70662 -0.884839 -3.17303 2650 
1231 1 -0.0298086 -0.0535255 -0.061761 0.000423 4.70907 0.481297 -2.2728 2650 
4305 1 -0.0364194 -0.0475845 -0.0581083 0.000423 -0.121839 0.00157249 0.0763627 2650 
786 1 -0.0406022 -0.0617045 -0.0552672 0.000423 6.34174 0.0666232 -4.65897 2650 
3966 1 -0.0414412 -0.0578754 -0.0546404 0.000423 -0.538517 0.190208 0.408431 2650 
2837 1 -0.0423582 -0.0531941 -0.0543213 0.000116 1.10859 -1.45375 -0.86445 2650 
3139 1 -0.0453601 -0.0610346 -0.051841 0.000116 5.34706 -0.25709 -4.6786 2650 
2123 1 -0.0451336 -0.0485901 -0.0516325 0.000423 2.85879 0.775156 -2.49896 2650 
2186 1 -0.0479385 -0.0600471 -0.0494664 0.000116 5.82859 0.209865 -5.64854 2650 
4229 1 -0.0482301 -0.0598375 -0.0491822 0.000116 5.30904 1.23259 -5.20651 2650 
3547 1 -0.0467644 -0.062254 -0.0487459 0.000423 10.3714 -0.194219 -7.4252 2650 
2310 1 -0.0492147 -0.0556208 -0.0483024 4.2e-05 -1.4086 -1.56896 1.4352 2650 
2314 1 -0.0486503 -0.0617932 -0.0466252 0.000656 5.98585 0.190629 -5.5818 2650 
1012 1 -0.0512096 -0.0499847 -0.0456128 0.000423 -0.197601 -0.346999 0.221847 2650 
1768 1 -0.0521236 -0.0573843 -0.0442078 0.000656 0.154005 0.450233 -0.181582 2650 
2042 1 -0.0534611 -0.0488442 -0.0434388 0.000116 1.08416 0.360367 -1.3343 2650 
3673 1 -0.0564806 -0.049431 -0.0388959 0.000423 -1.07204 -1.39561 1.55671 2650 
1407 1 -0.0583932 -0.0464596 -0.0365412 0.000116 1.62511 1.08883 -2.59695 2650 
2476 1 -0.0607305 -0.0476924 -0.0325089 0.000116 0.119167 -0.830233 -0.222618 2650 
3260 1 -0.0618488 -0.0616348 -0.0303314 0.000116 -0.365173 -0.181598 0.565214 2650 
3013 1 -0.0615563 -0.0551496 -0.0302287 0.000423 -0.218391 -0.015237 0.444721 2650 
4307 1 -0.0606173 -0.0611583 -0.0262758 0.000423 5.13743 1.42654 -6.46936 2650 
2100 1 -0.0639008 -0.0484593 -0.0242463 0.000656 -0.477985 -0.309965 1.25972 2650 
908 1 -0.0645546 -0.0486169 -0.0231441 0.000423 -0.462047 -0.306162 1.28876 2650 
3549 1 -0.0649294 -0.0503421 -0.0220708 0.000423 0.225625 0.093316 -0.66376 2650 
2051 1 -0.0606267 -0.0612738 -0.0207736 0.000116 1.4878 0.434855 -7.33346 2650 
1107 1 -0.0649598 -0.0589302 -0.0212466 0.000656 0.238523 0.797772 -0.729256 2650 
3812 1 -0.0660817 -0.0485411 -0.0194481 0.000116 -0.346471 -0.271977 1.17726 2650 
420 1 -0.0668254 -0.0588773 -0.0165024 0.000116 0.719986 1.89276 -3.52305 2650 
3613 1 -0.0670973 -0.0529598 -0.0159111 4.2e-05 0.143397 -0.972594 -0.604706 2650 
1377 1 -0.0674002 -0.0515092 -0.0142212 0.000116 0.356741 -0.304715 -1.69074 2650 
947 1 -0.0682486 -0.0536666 -0.00933575 0.000116 0.236343 0.321176 -1.72777 2650 
2177 1 -0.0688437 -0.057532 -0.00236076 0.000116 0.358181 0.225644 -10.4452 2650 
2052 1 -0.068645 -0.0464771 0.00573523 0.000116 -0.125782 0.532115 -1.50549 2650 
2829 1 -0.0684213 -0.0500911 0.00797159 0.000116 -0.0459556 -0.650303 -0.394444 2650 
1558 1 -0.0674528 -0.0460142 0.0123721 0.000423 0.553514 -1.18085 3.01748 2650 
3464 1 -0.0648666 -0.0624847 0.0129336 0.000116 -6.86218 0.10538 -9.93322 2650 
3583 1 -0.0676186 -0.060631 0.0129272 0.000116 -1.62339 1.93237 -7.48246 2650 
917 1 -0.0668764 -0.0501491 0.0151822 0.000423 -0.661015 0.565078 -2.91172 2650 
3058 1 -0.0667591 -0.0531268 0.0169778 0.000116 -0.448751 -0.706928 -1.76455 2650 
19 1 -0.0657289 -0.0553222 0.0195615 0.000423 0.386285 -1.01081 1.29796 2650 
2247 1 -0.0636831 -0.048784 0.0254443 0.000423 -1.1246 0.634054 -2.8147 2650 
577 1 -0.0634216 -0.0596479 0.0260892 0.000423 0.408965 -0.233454 0.994174 2650 
159 1 -0.063233 -0.0510633 0.0265431 0.000423 0.73582 -0.762655 1.75292 2650 
2460 1 -0.0628794 -0.0567715 0.0273703 0.000423 -0.339998 -0.823223 -0.781098 2650 
4023 1 -0.0628668 -0.0626482 0.028094 0.000116 -1.25547 -0.708859 -2.54336 2650 
1208 1 -0.062241 -0.056317 0.0296862 4.2e-05 -1.3166 -0.157991 -2.76042 2650 
2234 1 -0.061708 -0.0523485 0.0299177 0.000423 -0.0491007 -0.215059 -0.101275 2650 
169 1 -0.0618226 -0.0556647 0.0303809 0.000116 -4.27218 0.771547 -8.69355 2650 
1227 1 -0.0614526 -0.0536604 0.0304388 0.000423 -0.23697 -0.364338 -0.478417 2650 
2672 1 -0.0595155 -0.0620386 0.0340718 0.000423 -3.22424 0.696644 -5.63206 2650 
1207 1 -0.0590462 -0.0613078 0.0349901 4.2e-05 -1.75009 2.49363 -3.99271 2650 
3640 1 -0.0583816 -0.0600925 0.0359797 0.000423 -1.2383 1.8653 -2.0093 2650 
312 1 -0.0565249 -0.0605431 0.0393696 0.000116 -0.237307 -0.021065 -0.340714 2650 
800 1 -0.0552796 -0.0604395 0.0405849 0.000423 -2.88724 -0.0460054 -3.93263 2650 
4068 1 -0.0550742 -0.0499628 0.040863 0.000423 0.030658 -0.366547 0.0413202 2650 
1841 1 -0.0551058 -0.0603015 0.0413325 0.000116 -6.26392 0.875065 -8.35126 2650 
1955 1 -0.0502352 -0.0549974 0.0471322 0.000116 -1.16459 0.0968243 -1.24126 2650 
2480 1 -0.045996 -0.0473777 0.0512776 0.000116 -5.59885 -3.06202 -5.02217 2650 
4098 1 -0.0432968 -0.0524509 0.0531821 0.000423 0.664117 -0.0532974 0.540674 2650 
1174 1 -0.0406115 -0.0471999 0.0552243 0.000116 -1.52972 3.10904 -1.00105 2650 
2130 1 -0.0386664 -0.0501128 0.0566379 0.000423 1.69662 -0.605873 1.15827 2650 
3747 1 -0.0358662 -0.0511398 0.0584514 0.000423 -0.839323 1.20537 -0.515014 2650 
1079 1 -0.0275877 -0.0540893 0.0629763 0.000116 -3.15309 -3.37705 -1.32459 2650 
78 1 -0.0281487 -0.0455232 0.0628703 0.000116 -0.0495243 1.72706 -0.0221734 2650 
3090 1 -0.0261513 -0.0523022 0.063396 0.000423 0.7752 0.110311 0.319693 2650 
2574 1 -0.0239811 -0.0455065 0.0642484 0.000423 1.33193 -0.314648 0.497152 2650 
1752 1 -0.0185217 -0.0612866 0.0664241 4.2e-05 -0.283713 -0.0255108 -0.0791107 2650 
753 1 -0.0180708 -0.0466782 0.0664715 0.000116 -0.86728 -0.291832 -0.235777 2650 
1869 1 -0.012785 -0.0619132 0.0677625 4.2e-05 -6.47184 -1.23198 -1.22107 2650 
2527 1 -0.0138175 -0.0561877 0.0675595 4.2e-05 1.47145 0.521159 0.300947 2650 
2269 1 -0.0100965 -0.0618498 0.0681402 0.000116 -0.659353 -0.632177 -0.0976981 2650 
2937 1 -0.00893424 -0.0590432 0.0683023 0.000116 -3.19501 0.0768584 -0.417921 2650 
4026 1 -0.00582646 -0.0578511 0.0686373 0.000116 -3.07698 -0.0733033 -0.261197 2650 
1723 1 -0.000955474 -0.061023 0.0688775 0.000116 -2.09608 -0.0196554 -0.0290771 2650 
327 1 -0.000423138 -0.0502513 0.0689567 4.2e-05 -13.3852 1.33293 -0.0821352 2650 
2086 1 -0.00218549 -0.0137839 -0.0689234 4.2e-05 -2.87065 -0.812093 0.0910253 2650 
2714 1 -0.00244045 -0.0132984 -0.0688409 0.000116 -0.853903 0.387878 0.0302716 2650 
2382 1 -0.00545609 -0.0365907 -0.0686677 0.000116 -0.461948 -1.09859 0.0367047 2650 
55 1 -0.00647696 -0.0348038 -0.0682715 0.000423 -1.51395 -0.390994 0.14363 2650 
2001 1 -0.00405364 -0.0350147 -0.0684581 0.000423 -1.34373 -0.393678 0.079567 2650 
1031 1 -0.00486458 -0.0344728 -0.0684053 0.000423 -1.39878 -0.426836 0.0994731 2650 
3743 1 -0.00670186 -0.0202212 -0.0681243 0.000423 4.00928 0.0663466 0.463166 2650 
1493 1 -0.00540145 -0.0192465 -0.068672 0.000116 -1.7445 -0.268751 0.137215 2650 
4320 1 -0.00498697 -0.0181785 -0.0683965 0.000423 -1.76306 -0.191622 0.12855 2650 
437 1 -0.0101701 -0.0177834 -0.0682039 4.2e-05 -1.51715 -0.342107 0.226226 2650 
3945 1 -0.0102238 -0.0170422 -0.0681959 4.2e-05 -1.9723 -0.278827 0.295684 2650 
2327 1 -0.00621511 -0.0171948 -0.0682958 0.000423 -1.6463 -0.247001 0.149818 2650 
4217 1 -0.00667838 -0.0163918 -0.0680695 0.000423 -3.15474 -0.775689 0.975291 2650 
1364 1 -0.00519099 -0.0163944 -0.0683813 0.000423 -1.8675 -0.0491088 0.141766 2650 
3959 1 -0.00414092 -0.0163223 -0.0684529 0.000423 -1.83595 -0.0805586 0.111062 2650 
4250 1 -0.00999335 -0.0140247 -0.0681554 0.000116 -2.19761 -0.188896 0.322226 2650 
3040 1 -0.011087 -0.0134102 -0.067986 0.000116 -1.34544 -0.236599 0.219411 2650 
1503 1 -0.00860204 -0.0133574 -0.0683449 0.000116 -1.45682 -0.443643 0.183359 2650 
4016 1 -0.00835219 -0.00831543 -0.0683759 0.000116 -1.85768 -0.385166 0.226918 2650 
1757 1 -0.0120521 -0.00481421 -0.0678967 4.2e-05 -3.6435 0.408945 0.646745 2650 
3920 1 -0.00702718 -0.00412398 -0.0685247 0.000116 -2.15333 -0.350893 0.220823 2650 
2578 1 -0.00465287 -0.00446242 -0.06842 0.000423 -1.5874 -0.161978 0.107951 2650 
3656 1 -0.00242545 -0.00253134 -0.0685351 0.000423 -1.24771 -0.133737 0.0441563 2650 
3227 1 -0.00632839 -0.000652557 -0.0682854 0.000423 -1.62053 -0.0181765 0.150184 2650 
1781 1 -0.00307559 -0.000486875 -0.068509 0.000423 -1.441 -0.0217944 0.0646911 2650 
2317 1 -0.0104865 -0.0138288 -0.0675369 0.000656 -1.4382 0.159399 0.22331 2650 
1550 1 -0.012601 -0.0129098 -0.0671745 0.000656 -0.518523 0.517461 0.0972676 2650 
4048 1 -0.0154541 -0.0118048 -0.067204 4.2e-05 -3.0937 -2.36563 0.71142 2650 
1433 1 -0.0105567 -0.00992536 -0.067526 0.000656 -1.79727 -0.202838 0.280978 2650 
3527 1 -0.0136712 -0.0069157 -0.0672015 0.000423 -1.56556 -0.0376214 0.31846 2650 
3350 1 -0.0127211 -0.0064119 -0.0676993 0.000116 -1.52395 -0.447056 0.28636 2650 
670 1 -0.0081334 -0.00444114 -0.0678605 0.000656 -1.53304 0.129519 0.183742 2650 
2634 1 -0.0146233 -0.00378936 -0.0673897 4.2e-05 -2.1841 0.0817378 0.473942 2650 
2196 1 -0.016497 -0.0108567 -0.0669557 4.2e-05 -3.11088 -0.199714 0.766477 2650 
1172 1 -0.016456 -0.0088056 -0.0668896 0.000116 -1.79363 -0.609684 0.441264 2650 
725 1 -0.0185567 -0.0076851 -0.0663376 0.000116 -2.29035 -0.239092 0.640683 2650 
2873 1 -0.0143134 -0.00636517 -0.0670677 0.000423 -1.51559 -0.0650615 0.323464 2650 
1183 1 -0.017585 -0.00427136 -0.0666017 0.000116 -1.62976 -0.39458 0.430308 2650 
3519 1 -0.0152441 -0.00383067 -0.0666244 0.000656 -1.6536 0.0783256 0.378355 2650 
1046 1 -0.0169307 -0.00282812 -0.0667711 0.000116 -2.01492 0.948876 0.51091 2650 
355 1 -0.0147512 -0.00261376 -0.0669728 0.000423 -1.50386 0.131836 0.331236 2650 
4074 1 -0.0161381 -0.000935434 -0.0666522 0.000423 -1.88854 -0.0223632 0.457264 2650 
1958 1 -0.0192887 -0.0341976 -0.0661284 0.000116 4.1166 2.15842 -1.20076 2650 
2248 1 -0.0192312 -0.0177965 -0.0658263 0.000423 -0.657887 0.0535765 0.192202 2650 
2813 1 -0.0192408 -0.016705 -0.0661424 0.000116 -1.8622 -0.126761 0.541716 2650 
2349 1 -0.0198047 -0.0158987 -0.0656561 0.000423 -1.18655 -0.332465 0.357916 2650 
2663 1 -0.0194564 -0.0142206 -0.0657602 0.000423 -1.62968 -0.178954 0.48217 2650 
2118 1 -0.0185631 -0.0133208 -0.0660179 0.000423 -1.57204 -0.210761 0.442029 2650 
3409 1 -0.0174195 -0.00156773 -0.066089 0.000656 -1.75288 -0.0747554 0.462018 2650 
4052 1 -0.020512 -0.000253546 -0.0658367 4.2e-05 0.46395 1.46136 -0.144547 2650 
3878 1 -0.0180625 -0.000422989 -0.0661566 0.000423 -1.74071 2.9224e-08 0.475259 2650 
1417 1 -0.00490282 -0.0428366 -0.0646303 0.000116 11.8227 -2.68675 4.83397 2650 
691 1 -0.0202871 -0.0190822 -0.0655087 0.000423 -1.96312 -0.338521 0.60795 2650 
2538 1 -0.0208595 -0.0141719 -0.0650852 0.000656 -1.74672 -0.0509602 0.559816 2650 
3764 1 -0.0225685 -0.0124832 -0.0647582 0.000423 -2.99427 -0.358533 1.04351 2650 
1325 1 -0.0209118 -0.00999131 -0.0650684 0.000656 -1.90127 0.0628353 0.611032 2650 
2560 1 -0.0223087 -0.00915154 -0.0648481 0.000423 -2.03792 0.0222555 0.701076 2650 
3319 1 -0.0223812 -0.00720427 -0.0648231 0.000423 -1.97392 0.140501 0.681524 2650 
2367 1 -0.0228298 -0.00623707 -0.0649909 0.000116 -0.502166 -0.0337051 0.176399 2650 
1278 1 -0.0227777 -0.000364423 -0.0650092 0.000116 0.238268 -0.360012 -0.0834833 2650 
534 1 -0.0242671 -0.018297 -0.0644681 0.000116 -2.26773 -1.54425 0.853619 2650 
528 1 -0.0248266 -0.0106399 -0.0642547 0.000116 -1.22245 0.387739 0.472328 2650 
91 1 -0.023682 -0.0103301 -0.0646853 0.000116 -2.08782 -0.505743 0.764375 2650 
856 1 -0.0237193 -0.0024808 -0.0646716 0.000116 -0.737033 -1.72187 0.270318 2650 
827 1 -0.0264898 -0.0308791 -0.0635871 0.000116 -0.301392 -0.814732 0.125557 2650 
213 1 -0.0269861 -0.0264919 -0.063372 4.2e-05 -3.51696 -4.58634 1.94674 2650 
1734 1 -0.0258951 -0.0165747 -0.0638316 0.000116 -2.15342 -0.248639 0.873598 2650 
1453 1 -0.0281171 -0.015174 -0.062549 0.000423 -1.16923 0.101829 0.525594 2650 
3582 1 -0.0287479 -0.0149609 -0.0625986 0.000116 1.08563 0.431889 -0.498565 2650 
4110 1 -0.0286006 -0.0420027 -0.0623447 0.000423 -0.482281 0.0635255 -0.0180386 2650 
2703 1 -0.0304392 -0.00180581 -0.0617938 0.000116 -0.695389 0.629851 0.342544 2650 
3619 1 -0.0326396 -0.0220557 -0.0607443 4.2e-05 -2.15581 -1.2049 1.15837 2650 
358 1 -0.03233 -0.020522 -0.0601393 0.000423 3.26533 0.811827 -1.77265 2650 
902 1 -0.0338377 -0.0410262 -0.0596484 0.000423 0.562291 -0.494743 -0.315486 2650 
3741 1 -0.0336096 -0.0396813 -0.0597774 0.000423 0.0204205 0.337591 -0.0114813 2650 
1886 1 -0.0335603 -0.00524722 -0.0598051 0.000423 -1.1525 -0.218364 0.646738 2650 
13 1 -0.0340062 -0.00241307 -0.0595527 0.000423 -1.10802 0.143144 0.632709 2650 
1020 1 -0.0345395 -0.00044046 -0.059245 0.000423 -1.53316 -0.0128877 0.893822 2650 
3393 1 -0.0360741 -0.0439884 -0.0587696 4.2e-05 -0.762197 -2.02435 0.467853 2650 
2139 1 -0.035271 -0.000494894 -0.0588124 0.000423 -1.52556 -0.0113721 0.914907 2650 
2091 1 -0.0362326 -0.0380842 -0.0579517 0.000656 -0.51632 -0.329754 0.322814 2650 
2959 1 -0.0365545 -0.0289685 -0.0583171 4.2e-05 0.238778 -2.48759 -0.328661 2650 
1640 1 -0.037578 -0.0166708 -0.0578196 4.2e-05 1.3477 -0.634239 -0.875892 2650 
2376 1 -0.0378636 -0.0054838 -0.0575445 0.000116 -0.561392 -1.09433 0.369389 2650 
3963 1 -0.0376085 -0.00128516 -0.0573458 0.000423 -0.591556 -0.257911 0.387954 2650 
491 1 -0.037322 -0.000445274 -0.0575327 0.000423 -0.841746 0.0184742 0.546048 2650 
2790 1 -0.0388633 -0.0333688 -0.056503 0.000423 -1.19543 -0.00337852 0.822226 2650 
3153 1 -0.0394871 -0.0276934 -0.0564429 0.000116 6.2654 1.05466 -4.38323 2650 
152 1 -0.0394967 -0.00893061 -0.0560621 0.000423 -1.6277 -0.171027 1.14674 2650 
322 1 -0.00573987 -0.00163904 -0.0566021 4.2e-05 9.61928 -0.519761 -1.41473 2650 
1341 1 -0.0410618 -0.0395304 -0.0549261 0.000423 -1.19549 -0.200801 0.893728 2650 
394 1 -0.0413692 -0.02398 -0.0550782 0.000116 0.0111388 1.00539 -0.00836638 2650 
1462 1 -0.0409032 -0.00749308 -0.0550443 0.000423 -1.00547 0.0320328 0.747163 2650 
3479 1 -0.0414018 -0.00293039 -0.0550537 0.000116 -0.477804 0.185379 0.35932 2650 
3233 1 -0.00161567 -0.00672649 -0.0534683 0.000423 -0.248086 -0.310003 -8.29271 2650 
822 1 -0.0435493 -0.000608764 -0.0529755 0.000423 -0.840396 -0.0314559 0.69086 2650 
2765 1 -0.0443161 -0.0243971 -0.0523358 0.000423 -0.261112 0.652781 0.2211 2650 
3375 1 -0.0446419 -0.0135096 -0.0524607 0.000116 0.933133 1.95168 -0.794056 2650 
4297 1 -0.0463717 -0.000716943 -0.0505234 0.000423 -1.06865 -0.0358344 0.980835 2650 
1239 1 -0.0465373 -0.0421779 -0.0503709 0.000423 -0.18204 -0.396684 0.168185 2650 
1008 1 -0.0477627 -0.0373715 -0.0492105 0.000423 -0.201283 -0.618595 0.195361 2650 
2717 1 -0.0480491 -0.0268804 -0.049359 0.000116 0.626106 1.09448 -0.609491 2650 
502 1 -0.0479789 -0.0207681 -0.0493714 0.000116 -0.143079 -0.245275 -3.07188 2650 
4150 1 -0.0478123 -0.00115052 -0.0495884 0.000116 -1.12696 -0.0106043 1.08659 2650 
3904 1 -0.0482243 -0.000159796 -0.0491991 0.000116 -1.22982 -0.00510861 0.971156 2650 
4213 1 -0.0474325 -0.000764798 -0.0495288 0.000423 -1.08147 -0.0474135 1.0357 2650 
2208 1 -0.0497201 -0.00906052 -0.0468947 0.000656 -1.29377 -0.475322 1.37172 2650 
3748 1 -0.0504683 -0.0392234 -0.0464317 0.000423 -0.76754 -0.202954 0.834267 2650 
4342 1 -0.0513025 -0.0301932 -0.0459682 0.000116 2.46457 -0.846881 -2.75057 2650 
2066 1 -0.0468491 -0.0221709 -0.0453796 0.000116 4.04212 -0.460732 -9.45527 2650 
1132 1 -0.0511257 -0.00813595 -0.0457068 0.000423 -1.34079 -0.285222 1.49976 2650 
2169 1 -0.0522402 -0.0147965 -0.0448997 0.000116 4.29249 1.92268 -4.99425 2650 
1180 1 -0.0529945 -0.0235329 -0.0440069 0.000116 -0.827021 -0.00934963 0.995924 2650 
4006 1 -0.0534324 -0.00146103 -0.0434741 0.000116 -0.0331918 -0.185084 0.0407948 2650 
1612 1 -0.0531785 -0.000197116 -0.0436407 0.000116 0.38225 -0.115131 -1.09698 2650 
2112 1 -0.0535944 -0.0343202 -0.0427854 0.000423 -0.347745 -0.399712 0.435597 2650 
3636 1 -0.0531118 -0.0206969 -0.0433646 0.000423 -1.08712 0.310896 0.587163 2650 
2143 1 -0.0542925 -0.0434889 -0.041896 0.000423 -0.520945 -0.260766 0.675086 2650 
1404 1 -0.054148 -0.0367352 -0.0425795 0.000116 0.178983 -0.690156 -0.227611 2650 
3502 1 -0.0550217 -0.0439503 -0.0415551 4.2e-05 6.73959 -0.294087 -9.24025 2650 
1805 1 -0.054912 -0.0430937 -0.0410807 0.000423 -0.554829 -0.0392254 0.741632 2650 
2418 1 -0.0329185 -0.0400327 -0.0417211 4.2e-05 5.34855 0.481798 -2.40464 2650 
2018 1 -0.0550524 -0.0367199 -0.0408924 0.000423 -0.523744 -0.0503869 0.705103 2650 
1047 1 -0.0554932 -0.00770256 -0.0408109 0.000116 -0.93201 -0.328896 1.26731 2650 
2340 1 -0.0555498 -0.0364175 -0.0402141 0.000423 -0.51351 0.114821 0.709337 2650 
1968 1 -0.0565787 -0.00564318 -0.0392921 0.000116 -0.266591 -0.436648 0.383879 2650 
3431 1 -0.0573651 -0.0330425 -0.0375792 0.000423 -0.642735 0.075874 0.981143 2650 
419 1 -0.0577503 -0.0280505 -0.0375489 0.000116 1.62066 -0.658274 -2.49257 2650 
3692 1 -0.0585204 -0.0351233 -0.0363372 0.000116 0.465823 -0.834512 -0.750199 2650 
2875 1 -0.0582253 -0.00173127 -0.0362321 0.000423 -1.0493 -0.116392 1.68624 2650 
1224 1 -0.0585869 -0.00121997 -0.0356444 0.000423 -1.00068 0.00559775 1.64477 2650 
365 1 -0.0590859 -0.0232497 -0.0348109 0.000423 -0.514629 -0.0876238 0.8735 2650 
343 1 -0.0590525 -0.00153129 -0.0348676 0.000423 -0.969181 -0.053437 1.64143 2650 
1185 1 -0.0595292 -0.0328082 -0.0346597 0.000116 1.87995 1.23052 -3.22888 2650 
3543 1 -0.0598365 -0.0369185 -0.0335043 0.000423 -0.405236 -0.346298 0.723725 2650 
1945 1 -0.0600376 -0.0127906 -0.0337713 0.000116 -0.901016 0.213293 1.6018 2650 
3881 1 -0.0611152 -0.032045 -0.0311107 0.000423 -0.468611 -0.257982 0.920559 2650 
1938 1 -0.061259 -0.0261943 -0.0315016 0.000116 0.035786 -0.319791 -0.0695905 2650 
3882 1 -0.0622944 -0.00982963 -0.0286769 0.000423 -1.32268 -0.300902 2.87324 2650 
4345 1 -0.0603595 -0.000186291 -0.0289374 0.000116 10.7738 -1.61806e-05 -8.23589 2650 
4373 1 -0.0542478 -0.0207602 -0.027947 4.2e-05 2.13494 -0.329136 0.100387 2650 
440 1 -0.0631579 -0.00721114 -0.0276819 4.2e-05 -1.2853 -0.162365 2.93248 2650 
3330 1 -0.0627323 -0.00341669 -0.0277058 0.000423 -0.766477 -0.141044 1.73548 2650 
871 1 -0.0633028 -0.0183337 -0.0273489 4.2e-05 0.0446894 -0.0009862 -0.10344 2650 
3196 1 -0.062803 -0.00628052 -0.0275451 0.000423 -0.561019 0.106968 1.27913 2650 
3418 1 -0.0629279 -0.00258845 -0.0272586 0.000423 -0.497071 0.822123 1.14752 2650 
1712 1 -0.063731 -0.0444337 -0.0261416 0.000116 0.00950372 0.0556278 -0.0231692 2650 
733 1 -0.0637383 -0.0030562 -0.0261238 0.000116 -0.589708 0.240753 1.4388 2650 
2848 1 -0.0640541 -0.00820581 -0.0255398 4.2e-05 0.222846 1.82463 -0.558901 2650 
4331 1 -0.0644422 -0.0443486 -0.0243357 0.000116 0.651709 -1.42169 -1.72576 2650 
3688 1 -0.0645243 -0.0323126 -0.024117 0.000116 -0.362355 0.352711 0.969469 2650 
2846 1 -0.0649815 -0.0193563 -0.0230785 4.2e-05 -0.791091 -0.472147 2.22745 2650 
1915 1 -0.0645943 -0.0170677 -0.023033 0.000423 -0.617953 -0.104803 1.733 2650 
3477 1 -0.0654959 -0.00373372 -0.0213379 0.000116 -0.996448 -0.354694 3.05856 2650 
2212 1 -0.0653918 -0.0407906 -0.0198773 0.000656 -0.181749 -0.0536233 0.597242 2650 
3426 1 -0.0662173 -0.0103935 -0.0178385 0.000423 -0.351426 0.00690824 1.30451 2650 
1922 1 -0.0663657 -0.0082798 -0.0172782 0.000423 -0.357551 0.0315974 1.37336 2650 
606 1 -0.000183 0.00106736 -0.016592 0.000116 0 -0.011753 0 2650 
2726 1 -0.000642867 0.00924877 -0.0167067 0.000116 -0.00741369 0.00988612 -0.041436 2650 
2131 1 -0.0667245 -0.0102914 -0.0158364 0.000423 -0.250507 0.340168 1.05548 2650 
1083 1 -0.066989 -0.00743775 -0.0160467 0.000116 -0.400457 -0.548077 1.67176 2650 
421 1 -0.000391139 -0.000948994 -0.0162092 0.000116 -0.434857 0.264773 0.172681 2650 
999 1 -9.78557e-05 0.000249102 -0.0158704 0.000656 -0.00841998 -0.0161411 -0.0218233 2650 
2013 1 -0.00302924 0.0031421 -0.0158376 0.000423 -0.00154235 0.00221798 0.00156406 2650 
2301 1 -0.00436118 0.0032615 -0.015968 4.2e-05 -0.00116259 -0.0070103 0.00459775 2650 
4227 1 -0.000282909 0.00328474 -0.016439 0.000116 0.00593372 -0.017543 0.0130313 2650 
2283 1 -0.00353173 0.00467711 -0.0163644 0.000116 -0.00010552 0.00956354 0.000789399 2650 
2520 1 -0.000146662 0.00490514 -0.0164767 4.2e-05 0.00318265 0.000380138 0.00682554 2650 
978 1 -0.00184399 0.00619477 -0.0164539 0.000116 0.0180122 -0.00353228 -0.00159853 2650 
3934 1 -0.001977 0.00582936 -0.016218 0.000116 0 -0.011753 0 2650 
3365 1 -0.00146491 0.00638986 -0.016231 0.000116 0.015804 0.0241832 0.0212134 2650 
3150 1 -0.00243654 0.00999355 -0.0162277 0.000116 -0.0182263 -0.0087302 -0.0269448 2650 
938 1 -0.00154441 0.00993885 -0.0161135 0.000116 -0.00119823 0.000558801 -0.00633771 2650 
302 1 -0.0022023 0.0105417 -0.0165268 0.000116 -0.0347922 0.0241041 0.0152166 2650 
1483 1 -0.000496711 0.0106258 -0.0164085 0.000423 -0.000431738 0.0094693 0.00416488 2650 
3007 1 -0.00303362 0.0116608 -0.0160451 0.000423 -0.00754521 0.0118776 -0.00214285 2650 
3051 1 -0.00120617 0.0120441 -0.0163142 0.000116 -0.0677691 -0.171446 -0.0100126 2650 
371 1 -0.000633914 0.0120709 -0.0163192 0.000423 -0.00486135 0.00835155 -0.00501272 2650 
188 1 -0.00334646 0.0138236 -0.0160768 0.000116 -0.0148612 0.0228045 0.00418427 2650 
2182 1 -0.00147754 0.0144364 -0.0159385 0.000116 0.00266263 0.0360122 0.0211071 2650 
2713 1 -0.000698397 0.0163439 -0.0158359 0.000116 0.00037122 0.035974 0.00535071 2650 
93 1 -0.0045375 0.0209094 -0.0160915 0.000116 0.0714693 0.0500535 -0.0191255 2650 
1717 1 -0.00411158 0.031737 -0.016306 0.000116 0.0090039 0.0753863 0.0163861 2650 
2264 1 -0.00109154 0.0527897 -0.0162103 0.000116 -0.0637592 0.11185 0.0253368 2650 
2353 1 -0.0667967 -0.0152142 -0.015529 0.000423 -0.110644 0.184737 0.475924 2650 
30 1 -0.00243624 -0.00260574 -0.0153397 0.000423 -0.0139928 -0.0214008 0.00726417 2650 
3011 1 -0.000223654 -0.00292216 -0.0153172 0.000423 0.0180353 -0.0317081 -0.0392676 2650 
2399 1 -0.002418 0.00128136 -0.015541 0.000116 0 -0.011753 0 2650 
3637 1 -0.00551807 0.00440912 -0.0152287 0.000423 -0.00704251 0.0124689 0.006236 2650 
1679 1 -0.00435221 0.00522608 -0.0157202 0.000423 -0.00453172 0.0157125 0.00260684 2650 
889 1 -0.000984829 0.00481145 -0.015626 0.000656 0.0221019 0.0158351 0.0220207 2650 
1827 1 -0.00419749 0.00652309 -0.0153452 0.000116 -0.00517626 -0.0457281 -0.00851659 2650 
3830 1 -0.006879 0.00738136 -0.015411 4.2e-05 0 -0.011753 0 2650 
2438 1 -0.00629536 0.00723587 -0.0151699 0.000423 -0.00472103 -0.000373669 -0.00125399 2650 
2313 1 -0.00323066 0.00789492 -0.0150183 0.000656 0.00750763 0.00230554 0.0199624 2650 
3364 1 -0.00680475 0.00872495 -0.0150016 0.000116 -0.00179506 0.0163753 -0.0232219 2650 
70 1 -0.00186436 0.0136739 -0.015476 0.000116 0.0560864 0.0328811 0.00597028 2650 
2793 1 -0.000869637 0.0135608 -0.0151863 0.000423 0.00400332 0.0260717 0.000754087 2650 
3838 1 -0.00505593 0.0145531 -0.0153991 0.000656 0.0157867 0.0260395 0.00729433 2650 
2466 1 -0.00212263 0.0231467 -0.0153829 0.000423 0.0618857 0.0331724 -0.00268308 2650 
1195 1 -0.00239743 0.03597 -0.0151206 0.000116 0.0557766 0.0782116 -0.0138054 2650 
2775 1 -0.0670408 -0.00506238 -0.014439 0.000423 -0.332861 -0.181711 1.54548 2650 
1053 1 -0.007469 -0.00256064 -0.014946 0.000116 0 -0.011753 0 2650 
857 1 -0.0081254 0.00362031 -0.0146143 0.000116 -0.0319262 0.0179271 0.0379105 2650 
3787 1 -0.00687461 0.00394407 -0.0147914 0.000116 -0.0024271 -0.00223267 -0.0195234 2650 
1611 1 -0.000969273 0.00395471 -0.0148865 0.000116 0.0444256 -0.019621 0.0278665 2650 
1192 1 -0.00716855 0.00659405 -0.0146568 0.000116 0.00510585 0.0133553 0.012363 2650 
581 1 -0.00559368 0.00812247 -0.0144171 0.000423 0.00044719 0.0010883 0.00185987 2650 
2851 1 -0.00895653 0.0105207 -0.0142376 4.2e-05 -0.209059 -0.12398 0.156693 2650 
2774 1 -0.00717128 0.010718 -0.0144447 0.000423 -0.0403569 0.0250138 -0.0137733 2650 
2781 1 -0.00562777 0.0114268 -0.0147117 0.000423 0.00977627 0.0105103 0.0120467 2650 
86 1 -0.00526174 0.0110608 -0.0149247 0.000116 -0.0196067 0.0126222 0.000798653 2650 
2969 1 -0.00272958 0.011136 -0.0148059 0.000656 -0.00667616 0.014076 0.00443217 2650 
2453 1 -0.00593339 0.0125586 -0.0142524 0.000423 0.00287214 0.0261989 -0.0126472 2650 
1228 1 -0.00277599 0.0141762 -0.0146592 0.000423 -0.0165339 0.0339414 0.00465399 2650 
2191 1 -0.00240107 0.0134961 -0.0145029 4.2e-05 -0.00764734 0.00298638 -0.00836536 2650 
3644 1 -0.00141185 0.0147669 -0.0145849 0.000423 -0.0118967 0.0391079 0.0034562 2650 
2585 1 -0.00211691 0.0284954 -0.0148942 0.000116 -0.0221426 0.0759057 0.0070692 2650 
4244 1 -0.00386126 -0.00329966 -0.0140126 0.000116 -0.0436806 -0.00994679 0.0125723 2650 
736 1 -0.00899944 -0.0019654 -0.0139975 0.000116 -0.0307431 -0.0170391 0.0144389 2650 
509 1 -0.00789849 -0.000913789 -0.0140752 0.000116 -0.00480979 -0.0076817 0.0108723 2650 
1991 1 -0.00867337 0.000147922 -0.0136952 0.000656 -0.0192457 -0.00223252 0.00858771 2650 
2666 1 -0.00760842 0.00339486 -0.0141092 0.000423 0.0107963 0.0809594 0.0204513 2650 
763 1 -0.00716161 0.00327436 -0.0137332 4.2e-05 0.0429385 0.0136209 0.0378616 2650 
220 1 -0.0032813 0.00377019 -0.0136455 4.2e-05 0.00197382 0.00663681 0.00671825 2650 
1288 1 -0.002467 0.00501036 -0.014044 0.000116 0 -0.011753 0 2650 
3515 1 -0.00858597 0.00630378 -0.013542 0.000656 -0.00454215 -0.00749919 0.00616721 2650 
1618 1 -0.00941318 0.00764019 -0.0138853 0.000116 0.0059414 0.00192455 -0.00369393 2650 
1769 1 -0.00867054 0.00780021 -0.013593 0.000656 -0.00763615 -0.00751468 0.00847974 2650 
2483 1 -0.00559545 0.00735421 -0.0136139 0.000116 0.00771374 -0.0189039 -0.0218467 2650 
233 1 -0.00315352 0.00865895 -0.0141497 0.000423 0.0114684 -0.00558491 0.0116559 2650 
4190 1 -0.00935218 0.0094721 -0.0135833 0.000423 -0.00626579 0.00565015 0.00416389 2650 
842 1 -0.00796167 0.00886001 -0.0140552 0.000116 -0.0132472 -0.000581938 -0.0143857 2650 
1409 1 -0.000536662 0.0087695 -0.0139189 0.000116 -0.00338114 -0.0124825 -0.00177889 2650 
793 1 -8.24262e-05 0.00944654 -0.013947 0.000423 -0.00384688 0.00642406 -0.0108379 2650 
438 1 -0.00875968 0.0111 -0.013861 4.2e-05 0.0308848 -0.00685895 0.0152964 2650 
1802 1 -0.00319494 0.0123899 -0.0141611 0.000423 0.00500259 -0.000364755 -0.0111755 2650 
2345 1 -0.00183654 0.0138509 -0.0140473 0.000423 -0.0175833 0.0131789 -0.0282092 2650 
128 1 -0.000907794 0.0143039 -0.0140651 0.000423 -0.00458662 0.0273274 -0.00640456 2650 
3145 1 -0.00897814 0.0151495 -0.0140104 0.000116 0.00413084 0.0258652 0.0123186 2650 
3471 1 -0.00737128 0.0151928 -0.0139857 0.000116 0.00654915 0.0415659 -0.0136084 2650 
1839 1 -0.0077998 0.0165616 -0.0134228 0.000116 -0.0676852 0.0211351 0.0188737 2650 
2924 1 -0.00974505 0.017182 -0.0137672 0.000116 -0.0447463 0.0323973 0.0311383 2650 
3165 1 -0.0100775 0.0219819 -0.0134586 0.000116 -0.191147 0.128307 0.140346 2650 
4234 1 -0.00474216 0.0346205 -0.0138634 0.000116 0.00512064 0.0508026 0.0366661 2650 
3211 1 -0.00656595 0.054995 -0.0141478 0.000423 0.121461 0.0923792 -0.0696515 2650 
2147 1 -0.0676843 -0.0170417 -0.0128008 0.000116 -0.111222 -0.626086 0.588086 2650 
429 1 -0.0676433 -0.0140803 -0.0130156 0.000116 0.569889 0.719789 -2.96176 2650 
1528 1 -0.0677015 -0.00782041 -0.0127093 0.000116 -0.738261 -1.07993 3.93266 2650 
453 1 -0.067367 -0.00239241 -0.0128311 0.000423 -0.351207 -0.211358 1.84394 2650 
623 1 -0.00874451 -8.08215e-05 -0.0127097 0.000116 -0.00176155 0.0164163 -0.0155171 2650 
1763 1 -0.00381846 -0.00034312 -0.0133227 0.000656 0.0110536 0.0386342 0.0470271 2650 
2609 1 -0.0085429 0.00133215 -0.0133945 0.000116 -0.00705034 0.0126459 0.00789545 2650 
2922 1 -0.00823303 0.00131028 -0.0132304 0.000116 -0.00925852 -0.000802711 0.00675368 2650 
2512 1 -0.0061981 0.00093427 -0.0132623 0.000116 0.018779 -0.0192413 0.00230208 2650 
3917 1 -0.003984 0.00153836 -0.012703 0.000116 0 -0.011753 0 2650 
3316 1 -0.0101475 0.00174136 -0.013006 0.000423 -0.00552961 -0.00411585 -0.00161779 2650 
2059 1 -0.003583 0.00174736 -0.012756 0.000116 0 -0.011753 0 2650 
2913 1 -0.00965749 0.00306521 -0.013377 0.000116 -0.0269546 0.0385212 -0.00427738 2650 
4374 1 -0.00955509 0.00307654 -0.0130451 4.2e-05 -0.00342399 0.0134868 -0.018776 2650 
2473 1 -0.00954579 0.00256819 -0.0130661 0.000423 -0.0437212 0.0367029 0.0424505 2650 
3289 1 -0.00500967 0.00352809 -0.0128164 4.2e-05 0.00210041 -0.0118729 -0.0396069 2650 
1427 1 -0.002948 0.00407836 -0.013376 4.2e-05 0 -0.011753 0 2650 
3362 1 -0.00259839 0.00463132 -0.0130477 0.000116 0.000350619 -0.00253681 -0.00404217 2650 
3071 1 -0.0102742 0.00510046 -0.0128313 4.2e-05 -0.0100464 -0.00669175 -0.0253889 2650 
2322 1 -0.00934229 0.00490867 -0.0131794 0.000656 -0.00463581 -0.0140818 0.00324309 2650 
4179 1 -0.00816715 0.00479041 -0.0128484 0.000423 -0.000889884 -0.0208242 0.00186897 2650 
1388 1 -0.00793645 0.00559494 -0.0129423 0.000116 -0.039288 0.0021603 0.0169103 2650 
1250 1 -0.0095808 0.00707707 -0.0132312 0.000423 -0.00836241 -0.0100793 -0.00125625 2650 
4257 1 -0.00848325 0.00703356 -0.0126322 0.000116 -0.00578911 -0.00907208 0.00958653 2650 