ITEM: TIMESTEP
5863314
ITEM: NUMBER OF ATOMS
4349
ITEM: BOX BOUNDS ff ff ff
-0.15 0.15
-0.15 0.06
-0.15 0.15
ITEM: ATOMS id type x y z radius vx vy vz density 
1170 1 -0.000118327 -0.0578357 -0.068884 0.000116 0.878116 1.61771 -0.00150832 2650 
3613 1 -0.00237451 -0.0479954 -0.0689171 4.2e-05 -3.749 -0.0259108 0.12917 2650 
2274 1 -0.0115823 -0.0541748 -0.0679034 0.000116 6.70686 0.283726 -1.14399 2650 
3577 1 -0.0143242 -0.0503553 -0.0673783 0.000116 -2.87528 -0.679259 0.611265 2650 
1961 1 -0.0134649 -0.04937 -0.0674291 0.000116 -0.393197 -2.43757 0.320296 2650 
2457 1 -0.0138624 -0.0483684 -0.0671624 0.000423 -2.88726 -0.11802 0.596607 2650 
4139 1 -0.0348465 -0.0538321 -0.05942 0.000116 -1.05345 0.259168 0.617793 2650 
2855 1 -0.0396739 -0.0557707 -0.056402 4.2e-05 -1.1665 0.117019 0.820528 2650 
3308 1 -0.042425 -0.0610764 -0.0538801 0.000423 -2.01613 -0.0637219 1.5875 2650 
4150 1 -0.0424412 -0.0457725 -0.0542565 0.000116 1.05937 0.679411 -0.828673 2650 
4331 1 -0.0462661 -0.0571163 -0.051034 0.000116 -0.415114 0.823434 0.376332 2650 
3425 1 -0.0567496 -0.062361 -0.0385025 0.000423 2.26859 -0.0633247 -3.34373 2650 
2256 1 -0.0577534 -0.0525806 -0.0375442 0.000116 0.300834 -0.596284 -0.462766 2650 
1563 1 -0.0580467 -0.0485807 -0.0365177 0.000423 -1.80402 0.687857 2.86757 2650 
1417 1 -0.0603933 -0.0552291 -0.0331311 0.000116 -1.06031 -0.050805 1.9328 2650 
200 1 -0.0574252 -0.062684 -0.0321502 0.000116 2.51824 1.87847e-10 -9.87505 2650 
19 1 -0.06368 -0.0599179 -0.0254519 0.000423 0.352851 0.186331 -0.882826 2650 
3918 1 -0.0646871 -0.055902 -0.0236171 0.000116 0.023207 2.85029 -0.127343 2650 
981 1 -0.051972 -0.0468102 -0.0190914 4.2e-05 0.555279 -1.16283 -2.80232 2650 
3692 1 -0.0673795 -0.0500532 -0.0143187 0.000116 0.112556 0.240899 -0.529655 2650 
854 1 -0.0681794 -0.0507199 -0.00982917 0.000116 2.17972 1.34729 -15.1195 2650 
4316 1 -0.068054 -0.0563215 -0.00846156 0.000423 -0.0695499 0.428475 0.559371 2650 
649 1 -0.0685843 -0.0586294 -0.00641998 0.000116 0.136802 0.0136375 -1.46145 2650 
2599 1 -0.0687016 -0.0458648 -0.00501157 0.000116 0.082763 -0.729626 -1.13457 2650 
2395 1 -0.0677557 -0.0467131 0.012217 0.000116 -0.968505 0.0801561 -5.05094 2650 
3426 1 -0.0669767 -0.0459198 0.0147334 0.000423 0.588382 -0.560369 2.67474 2650 
2612 1 -0.0631938 -0.0500847 0.0274148 0.000116 -0.812649 0.582518 -1.87323 2650 
3785 1 -0.0604885 -0.0471056 0.0329571 0.000116 -1.66932 0.915774 -3.06383 2650 
2954 1 -0.0540141 -0.0599827 0.0427492 0.000116 -0.754474 -0.969032 -0.953288 2650 
2790 1 -0.0491431 -0.0514023 0.0478321 0.000423 1.69094 -0.0304531 1.73729 2650 
1060 1 -0.0481371 -0.0511346 0.0492731 0.000116 2.21357 -0.525936 2.16254 2650 
3348 1 -0.0455165 -0.0588259 0.0517036 0.000116 -0.172316 -1.04756 -0.151696 2650 
1208 1 -0.0429689 -0.0510505 0.053934 4.2e-05 0.919623 0.399015 0.732658 2650 
921 1 -0.0360111 -0.0463578 0.0583623 0.000423 2.06563 -0.289253 1.27455 2650 
1239 1 -0.0280931 -0.0590859 0.0625598 0.000423 1.37078 -0.142356 0.615563 2650 
868 1 -0.0248242 -0.0618968 0.0642557 0.000116 -10.1918 -1.29626 -3.93745 2650 
3331 1 -0.0242722 -0.0501495 0.064139 0.000423 2.37077 0.398122 0.897171 2650 
689 1 -0.0219969 -0.0622682 0.0649325 0.000423 -1.1076 -0.0162906 -1.1175 2650 
3038 1 -0.0196757 -0.0595665 0.0660143 0.000116 1.5267 -1.68124 0.455035 2650 
3073 1 -0.0159363 -0.0622293 0.0670409 4.2e-05 -12.8465 0.0754031 -6.09478 2650 
575 1 -0.0105317 -0.0623064 0.0677645 0.000423 1.06388 -0.897689 0.165345 2650 
2667 1 -0.0102457 -0.058045 0.0678084 0.000423 1.46029 0.353755 0.220646 2650 
2160 1 -0.00957018 -0.0544194 0.0682161 0.000116 0.671922 0.893493 0.0942651 2650 
3957 1 -0.00304296 -0.0463188 0.0682784 0.000656 2.12685 0.338649 0.0947875 2650 
2139 1 -0.000853367 -0.0464554 0.0685728 0.000423 2.5349 0.068424 0.0315461 2650 
758 1 -0.00444751 -0.0492494 0.0687404 0.000116 2.77308 0.962554 0.179418 2650 
4016 1 -0.00419081 -0.0437532 -0.0687565 0.000116 0.707288 -0.31581 -0.0431102 2650 
4376 1 -0.00535622 -0.0188003 -0.0687497 4.2e-05 -3.22514 -0.193316 0.251267 2650 
4132 1 -3.95282e-05 -0.0189299 -0.0688841 0.000116 -3.20408 -0.134491 0.00183862 2650 
3399 1 -0.00430547 -0.0163728 -0.0688235 4.2e-05 -3.19403 0.147412 0.199812 2650 
1863 1 -0.00164108 -0.0104902 -0.0689385 4.2e-05 -3.20148 -0.206705 0.0762113 2650 
1317 1 -0.00343991 -0.00532525 -0.0688722 4.2e-05 -3.19851 -0.120296 0.159754 2650 
2705 1 -0.00220357 -0.00342847 -0.0688489 0.000116 -2.62787 -0.212971 0.0841073 2650 
3652 1 -0.0091558 -0.0379257 -0.0679641 0.000423 -1.51379 0.471637 0.203931 2650 
3547 1 -0.00165552 -0.0338935 -0.0685581 0.000423 -2.11338 -0.173895 0.0510333 2650 
3366 1 -0.00786425 -0.0318643 -0.0684337 0.000116 -1.23573 -0.379215 0.142008 2650 
2167 1 -0.00930151 -0.0314526 -0.0682532 0.000116 -2.3607 -0.530849 0.321715 2650 
1104 1 -0.00353542 -0.0288679 -0.0682547 0.000656 -2.20995 -0.0149447 0.11447 2650 
1784 1 -0.000990092 -0.0266257 -0.0685709 0.000423 -2.10618 -0.422602 0.030411 2650 
235 1 -0.0026092 -0.0246392 -0.0685284 0.000423 -2.13202 0.144697 0.0811761 2650 
2651 1 -0.00256865 -0.0221527 -0.0685299 0.000423 -1.81355 0.498864 0.0679758 2650 
341 1 -0.00015616 -0.0216554 -0.0683461 0.000656 -2.87593 -0.324648 0.00657106 2650 
1960 1 -0.00951927 -0.0186904 -0.0682232 0.000116 -1.96542 1.17255 0.274237 2650 
2593 1 -0.00633558 -0.0187923 -0.0685922 0.000116 -3.17987 -0.10709 0.293712 2650 
35 1 -0.00851897 -0.0181507 -0.0680469 0.000423 -2.39908 0.0948935 0.300347 2650 
3168 1 -0.00658428 -0.0133329 -0.0685687 0.000116 -2.18444 -0.446982 0.20976 2650 
3534 1 -0.00661809 -0.00814864 -0.068258 0.000423 -3.01613 0.191699 0.292435 2650 
2000 1 -0.00897587 -0.00193842 -0.0679881 0.000423 -0.617266 0.2159 0.0814922 2650 
3845 1 -0.0113588 -0.0127807 -0.0673957 0.000656 -2.70466 0.513995 0.455842 2650 
3786 1 -0.0148697 -0.0123831 -0.0672601 0.000116 -3.59648 -0.0686916 0.795104 2650 
688 1 -0.0136572 -0.0103224 -0.0672044 0.000423 -2.2341 0.312089 0.454012 2650 
1752 1 -0.0131905 -0.00469703 -0.0676847 4.2e-05 -3.1416 -0.0986271 0.612241 2650 
3540 1 -0.0158518 -0.0418456 -0.0667208 0.000423 -1.06151 -0.0738933 0.252108 2650 
1687 1 -0.0157726 -0.0335136 -0.0667396 0.000423 -2.41686 0.277957 0.571177 2650 
2224 1 -0.0151664 -0.0264359 -0.06688 0.000423 -2.47075 -0.124582 0.560294 2650 
375 1 -0.0145356 -0.0250463 -0.0670199 0.000423 -2.41047 -0.0533604 0.522794 2650 
2430 1 -0.0135162 -0.0246118 -0.0669964 0.000656 -2.42074 0.0124126 0.488372 2650 
1669 1 -0.0143328 -0.023353 -0.0670636 0.000423 -2.4093 0.163697 0.514913 2650 
3339 1 -0.016102 -0.0194518 -0.0666609 0.000423 -2.48178 -0.364269 0.599476 2650 
1071 1 -0.0162906 -0.00909913 -0.0669301 0.000116 -2.94026 0.477041 0.715652 2650 
3351 1 -0.0172695 -0.00837091 -0.0666842 0.000116 -3.06652 -0.20509 0.79415 2650 
811 1 -0.0156038 -0.00369035 -0.0667793 0.000423 -2.67587 0.556795 0.625247 2650 
1537 1 -0.0162911 -0.00188205 -0.0668553 4.2e-05 3.59179 -0.290831 -1.14834 2650 
4037 1 -0.012688 -0.0394138 -0.0662486 0.000116 1.68825 1.30436 -0.359221 2650 
3409 1 -0.0168439 -0.0341254 -0.0662381 0.000656 -2.54743 0.352255 0.647792 2650 
1500 1 -0.0181412 -0.0141048 -0.0660233 0.000116 -3.71814 -0.575765 -2.24021 2650 
1675 1 -0.0182906 -0.000834245 -0.0660939 0.000423 -2.16905 -0.0576291 0.600257 2650 
4338 1 -0.0173823 -0.0216184 -0.0653559 0.000116 1.54128 -0.307845 -1.38604 2650 
3891 1 -0.0209887 -0.0113151 -0.0652873 0.000423 -3.01187 -0.353695 0.968262 2650 
1587 1 -0.0240875 -0.0367315 -0.0642086 0.000423 -0.49759 -0.731457 0.186668 2650 
2846 1 -0.025147 -0.00209615 -0.0642093 4.2e-05 -2.31041 -0.0946818 0.90485 2650 
3945 1 -0.028583 -0.00382933 -0.0627553 4.2e-05 -3.77387 -0.149394 1.71887 2650 
2074 1 -0.030731 -0.0167335 -0.0616492 0.000116 -2.83675 -0.225414 1.41407 2650 
4204 1 -0.029214 -0.0096208 -0.0620443 0.000423 -2.75654 -0.173042 1.29794 2650 
1870 1 -0.0298448 -0.00582337 -0.0621651 4.2e-05 -2.02958 -0.0108145 0.974381 2650 
2928 1 -0.0317869 -0.0438639 -0.0611116 0.000116 12.1858 0.86743 -6.33838 2650 
3574 1 -0.0322247 -0.0212657 -0.0608818 0.000116 -2.64309 0.115682 1.39899 2650 
2664 1 -0.0310265 -0.015821 -0.0611581 0.000423 -2.81681 -0.159849 1.42902 2650 
2317 1 -0.0307428 -0.00889164 -0.0610417 0.000656 -2.12196 0.389226 1.0687 2650 
15 1 -0.00804469 -0.00558709 -0.0612005 0.000423 -1.23341 -0.199153 -9.46372 2650 
468 1 -0.0321601 -0.03677 -0.0605696 0.000423 -2.00274 0.546513 1.06338 2650 
579 1 -0.0324901 -0.0157041 -0.0603933 0.000423 -2.84524 -0.375959 1.53067 2650 
432 1 -0.0348177 -0.0270301 -0.0595226 4.2e-05 4.63555 -0.505185 -2.71156 2650 
2680 1 -0.0332709 -0.0261831 -0.0599667 0.000423 -2.40016 -0.407043 1.33166 2650 
3543 1 -0.035444 -0.027834 -0.0587084 0.000423 -2.27915 0.155476 1.37599 2650 
491 1 -0.0353967 -0.011038 -0.0587369 0.000423 -2.14813 0.118338 1.29453 2650 
1207 1 -0.0355125 -0.00720822 -0.0591107 4.2e-05 -1.77505 -0.302655 1.06642 2650 
1943 1 -0.0362415 -0.00593123 -0.0585796 0.000116 -2.89331 0.240559 1.79001 2650 
1833 1 -0.0374602 -0.0278648 -0.0578079 0.000116 -2.35006 -0.16279 1.52287 2650 
2208 1 -0.0361993 -0.0281441 -0.0579726 0.000656 -2.25002 0.150326 1.40496 2650 
1794 1 -0.0360282 -0.0126918 -0.0583517 0.000423 -2.4336 -0.0859986 1.50258 2650 
1325 1 -0.0361695 -0.0112112 -0.0579912 0.000656 -2.14461 0.209709 1.3376 2650 
753 1 -0.0385747 -0.0293717 -0.0570703 0.000116 -2.57566 -0.0141133 1.74092 2650 
691 1 -0.0380618 -0.0296089 -0.0570461 0.000423 -2.48212 0.0845147 1.65612 2650 
3527 1 -0.038037 -0.0281005 -0.0570626 0.000423 -2.12948 -0.220458 1.41947 2650 
1433 1 -0.0378143 -0.025251 -0.0569323 0.000656 -2.33813 -0.0267936 1.55298 2650 
3874 1 -0.0372928 -0.0189672 -0.0575517 0.000423 -2.54798 -0.0979859 1.65106 2650 
2418 1 -0.0383238 -0.0176174 -0.057328 4.2e-05 -2.61304 -0.00647333 1.74682 2650 
1760 1 -0.0390069 -0.00463677 -0.0568654 4.2e-05 2.08092 -0.442439 -1.42741 2650 
1912 1 -0.0394076 -0.0387042 -0.0561248 0.000423 -1.94477 0.0454652 1.3655 2650 
935 1 -0.0394616 -0.0378405 -0.0560868 0.000423 -1.69401 -1.05387 1.19187 2650 
1372 1 -0.0383837 -0.0334946 -0.0568299 0.000423 -2.25191 -0.0358017 1.52097 2650 
1990 1 -0.0385675 -0.026354 -0.0564248 0.000656 -2.4001 0.002233 1.64052 2650 
4323 1 -0.0392022 -0.0243135 -0.0562685 0.000423 -2.33197 0.315167 1.62468 2650 
1453 1 -0.0383928 -0.018593 -0.0568238 0.000423 -2.56211 -0.133699 1.73108 2650 
3815 1 -0.0389709 -0.0102546 -0.0568005 0.000116 -1.21069 -0.00651034 0.830652 2650 
4017 1 -0.0393244 -0.0101787 -0.0565563 0.000116 -1.40011 0.0253329 0.973517 2650 
3024 1 -0.0393102 -0.00968499 -0.0565662 0.000116 -0.538585 0.667256 0.374285 2650 
3256 1 -0.0102645 -0.00708904 -0.0565231 0.000116 -1.59133 -0.294685 -8.73086 2650 
636 1 -0.0390827 -0.00596794 -0.0567236 0.000116 -2.71735 -0.23949 1.87226 2650 
1655 1 -0.0401265 -0.0423401 -0.0553269 0.000656 -1.17253 0.143046 0.850392 2650 
1503 1 -0.0405445 -0.0027926 -0.0556881 0.000116 -2.14261 -0.138352 1.55996 2650 
2546 1 -0.0414636 -0.0279912 -0.0546235 0.000423 -2.06859 -0.213457 1.57022 2650 
2211 1 -0.0412926 -0.0400996 -0.0544621 0.000656 -1.91373 -0.010675 1.45097 2650 
367 1 -0.0422493 -0.0242084 -0.054018 0.000423 -1.72292 -0.400938 1.34755 2650 
4138 1 -0.0433886 -0.00675015 -0.0535019 0.000116 -2.79654 0.135713 2.26791 2650 
2679 1 -0.0445524 -0.0287698 -0.0521348 0.000423 -2.47993 -0.115519 2.11925 2650 
1598 1 -0.0449667 -0.00678471 -0.0521825 0.000116 -0.912803 -0.117106 0.78658 2650 
3647 1 -0.0441135 -0.00549933 -0.0525067 0.000423 -2.50811 -0.101413 2.10719 2650 
3444 1 -0.0443058 -0.00110175 -0.0523445 0.000423 -2.1835 -0.105097 1.84817 2650 
2060 1 -0.0443932 -0.000157279 -0.0526747 0.000116 -1.9414 -0.00708515 1.51016 2650 
1020 1 -0.0451824 -0.00966951 -0.0515897 0.000423 -1.44747 0.479312 1.26769 2650 
4250 1 -0.0470786 -0.0437804 -0.0500336 0.000116 2.08347 -0.744831 -2.21768 2650 
91 1 -0.0473949 -0.0329812 -0.0499875 0.000116 -2.56438 -0.226911 2.43138 2650 
2066 1 -0.0469957 -0.0126416 -0.050363 0.000116 -1.85467 -0.157386 1.73067 2650 
844 1 -0.047518 -0.0382473 -0.0496583 0.000116 1.36198 0.944145 -1.30842 2650 
2103 1 -0.0495796 -0.0225504 -0.0473795 0.000423 -1.67285 -0.125939 1.75053 2650 
319 1 -0.0442167 -0.0200425 -0.0479031 0.000116 9.31705 1.31153 0.556015 2650 
14 1 -0.0498366 -0.0296072 -0.047109 0.000423 -1.67019 0.0591525 1.7669 2650 
1356 1 -0.0504044 -0.0247529 -0.0465011 0.000423 -1.7129 -0.487684 1.85668 2650 
1210 1 -0.0512562 -0.0123521 -0.0461304 4.2e-05 -2.13999 -0.188292 2.37778 2650 
2465 1 -0.0530316 -0.0395229 -0.043481 0.000423 0.140518 0.628516 -0.171907 2650 
51 1 -0.0536156 -0.0398875 -0.0427588 0.000423 0.0203002 0.0891421 -0.02743 2650 
1202 1 -0.0540096 -0.0218305 -0.0428739 4.2e-05 -1.12541 -0.0264602 1.41771 2650 
3066 1 -0.0536267 -0.0125876 -0.0433519 4.2e-05 -1.86619 0.414566 2.3085 2650 
4025 1 -0.054482 -0.01472 -0.0421513 0.000116 -1.92372 0.154653 2.48648 2650 
3196 1 -0.0543349 -0.0116163 -0.0418411 0.000423 -1.93496 -0.345357 2.51274 2650 
2560 1 -0.0555141 -0.034946 -0.0402633 0.000423 -1.57092 0.2543 2.16595 2650 
1591 1 -0.0556337 -0.0421471 -0.0400979 0.000423 -1.02415 0.335729 1.42096 2650 
4106 1 -0.0569133 -0.00261655 -0.03826 0.000423 -1.64445 0.436686 2.44619 2650 
355 1 -0.0575712 -0.0226036 -0.0372627 0.000423 -1.50464 0.240543 2.32468 2650 
208 1 -0.0585629 -0.0349011 -0.0362686 0.000116 -0.415828 1.33277 0.671439 2650 
2162 1 -0.058542 -0.0181661 -0.0363024 0.000116 1.25496 -2.98815 -2.02378 2650 
2337 1 -0.0584449 -0.00106032 -0.0358768 0.000423 -1.66825 0.102466 2.71765 2650 
420 1 -0.0591199 -0.0158816 -0.0353534 0.000116 -1.63853 -0.217131 2.74003 2650 
3040 1 -0.059339 -0.00556024 -0.0349844 0.000116 -0.947941 -0.202128 1.60786 2650 
4021 1 -0.0592788 -0.000626163 -0.0350863 0.000116 -1.67189 0.243334 2.82469 2650 
3522 1 -0.0593113 -0.0330715 -0.0344255 0.000423 -0.831585 -0.355829 1.43273 2650 
2051 1 -0.0596523 -0.00617452 -0.0344474 0.000116 -0.460898 1.00217 0.798134 2650 
3227 1 -0.0604361 -0.0374623 -0.0324104 0.000423 -1.37607 -0.264343 2.56597 2650 
2052 1 -0.0607359 -0.0111344 -0.0324987 0.000116 -1.51355 -0.204452 2.82863 2650 
400 1 -0.0607012 -0.0104037 -0.0325635 0.000116 -1.51933 -0.174734 2.83217 2650 
1364 1 -0.00127251 -0.00596248 -0.0329963 0.000423 -0.21624 -0.317415 -4.47876 2650 
821 1 -0.0605766 -0.0288247 -0.032147 0.000423 -1.34568 0.366576 2.53574 2650 
3204 1 -0.0606793 -0.0252052 -0.0319526 0.000423 -1.22916 0.105731 2.33423 2650 
3422 1 -0.0612658 -0.0278083 -0.0308133 0.000423 -0.982486 -0.151442 1.95347 2650 
3875 1 -0.0609891 -0.0270447 -0.0313573 0.000423 -1.09144 0.348716 2.12283 2650 
3502 1 -0.0614818 -0.00659218 -0.0312282 4.2e-05 -1.44942 -0.151264 2.8536 2650 
2875 1 -0.0614686 -0.0129692 -0.0304066 0.000423 -1.41732 -0.327045 2.86518 2650 
3328 1 -0.061678 -0.022454 -0.0299795 0.000423 -1.21954 0.202857 2.509 2650 
152 1 -0.0617483 -0.0193892 -0.0298345 0.000423 -1.06712 0.0477482 2.2086 2650 
2151 1 -0.0624634 -0.00858524 -0.0290404 0.000116 -1.3204 -0.112413 2.84007 2650 
1169 1 -0.0258592 -0.00388287 -0.0289699 0.000116 -3.88024 -0.0851977 -4.34701 2650 
3385 1 -0.0630626 -0.0147125 -0.0277153 0.000116 0.630864 -0.512839 -1.43545 2650 
427 1 -0.0636696 -0.000607181 -0.0262909 0.000116 -0.0530921 -0.080131 0.128575 2650 
1002 1 -0.0638452 -0.0370592 -0.0243925 0.000656 -1.07242 -0.0748567 2.80695 2650 
1886 1 -0.0645716 -0.00758744 -0.023097 0.000423 -1.07866 -0.205031 3.01558 2650 
2386 1 -0.0650653 -0.0228001 -0.022617 0.000116 0.651841 -0.323835 -1.87523 2650 
3974 1 -0.065378 -0.0419969 -0.0207043 0.000423 -0.067632 0.185246 0.213561 2650 
2862 1 -0.0649913 -0.0246774 -0.0211504 0.000656 -0.877145 0.252765 2.69531 2650 
4320 1 -0.0656471 -0.0321576 -0.0198346 0.000423 -0.680252 0.137139 2.25145 2650 
2201 1 -0.0654396 -0.041284 -0.0197195 0.000656 -0.045036 0.61326 0.149452 2650 
633 1 -0.0662625 -0.0164796 -0.0188229 0.000116 -0.882872 -0.130835 3.10799 2650 
2835 1 -0.0666335 -0.0263191 -0.0174642 0.000116 -0.4371 -0.160666 1.66772 2650 
1363 1 -0.066445 -0.0209565 -0.0169706 0.000423 -0.131022 -0.0662755 0.51297 2650 
606 1 -0.000183 0.00315168 -0.016592 0.000116 0 -0.011753 0 2650 
3589 1 -0.000963466 0.00560699 -0.0167012 0.000116 0.154771 0.0635836 -0.00686375 2650 
188 1 -0.000705884 0.00961476 -0.0167926 0.000116 -0.0156058 0.0716121 0.00169132 2650 
2713 1 -0.000763 0.0101227 -0.016767 0.000116 0 -0.011753 0 2650 
736 1 -0.00350823 0.00106394 -0.0164777 0.000116 -0.0354095 -0.0179405 0.00483888 2650 
150 1 -0.0031533 0.00132267 -0.0161477 0.000423 -0.0635667 0.0441481 0.00872881 2650 
2793 1 -0.00200391 0.00131445 -0.016186 0.000423 -0.000947019 0.106571 0.0232058 2650 
1679 1 -0.00363815 0.00260422 -0.016026 0.000423 -0.000267589 -0.00703629 -0.00433961 2650 
2013 1 -0.00273364 0.00281812 -0.0161251 0.000423 -6.21088e-05 -0.00297451 0.00266081 2650 
2301 1 -0.004222 0.00492468 -0.016305 4.2e-05 0 -0.011753 0 2650 
3121 1 -0.00318565 0.00506936 -0.0162029 0.000423 0.0292552 0.00121421 5.81941e-05 2650 
1388 1 -0.000968975 0.00521182 -0.0159412 0.000116 -0.039288 0.0021603 0.0169103 2650 
302 1 -0.000300293 0.00650316 -0.0162577 0.000116 0.0171051 0.0203877 0.0103663 2650 
3934 1 -0.001977 0.00791368 -0.016218 0.000116 0 -0.011753 0 2650 
1617 1 -0.00351899 0.00975555 -0.0164613 0.000116 0.0304875 0.00968505 -0.0492471 2650 
2924 1 -8.91696e-05 0.0111149 -0.0163258 0.000116 -0.059039 0.0353164 0.00422158 2650 
3573 1 -0.00386637 0.0308957 -0.0164075 0.000116 0.196545 -0.226716 -0.153339 2650 
1173 1 -0.000141509 0.033725 -0.0158366 0.000116 -0.136556 0.342033 -0.0293067 2650 
456 1 -0.00303037 0.0389135 -0.0160948 0.000423 -0.713021 -0.0435711 0.131566 2650 
4245 1 -0.00258092 0.0412207 -0.0163606 0.000116 -0.131082 0.152483 0.00432583 2650 
1357 1 -0.00269059 0.0506806 -0.0162234 0.000423 0.0681058 0.285169 -0.0155587 2650 
3349 1 -0.0671447 -0.00567978 -0.0153822 0.000116 -0.713536 -0.130125 3.11465 2650 
623 1 -0.00677961 0.000501382 -0.0152095 0.000116 0.0135085 -0.00577665 0.0160157 2650 
1991 1 -0.00522622 0.000522283 -0.0152321 0.000656 -0.0197706 -0.00214867 0.00868857 2650 
3637 1 -0.00379066 0.00223768 -0.0152026 0.000423 -0.00927208 0.0142333 -0.0137243 2650 
3239 1 -0.00335896 0.00176313 -0.0157315 0.000116 -0.0332144 0.00168872 0.00188105 2650 
676 1 -0.00261318 0.00189654 -0.0157086 0.000423 -0.0153526 -0.000110762 0.0217663 2650 
3043 1 -0.0017262 0.00245349 -0.0157776 0.000116 0.127084 0.0078871 0.090283 2650 
2399 1 -0.002418 0.00336568 -0.015541 0.000116 0 -0.011753 0 2650 
2283 1 -0.00218117 0.0038497 -0.0155892 0.000116 -0.0318858 -0.01081 -0.0228231 2650 
2313 1 -0.00485779 0.00569269 -0.0151492 0.000656 0.00856952 0.0288131 0.00982472 2650 
2438 1 -0.00563893 0.00667143 -0.0153685 0.000423 0.0095107 -0.00232096 0.00866566 2650 
978 1 -0.00494657 0.00683158 -0.0157082 0.000116 0.015313 -0.00383775 -0.0151954 2650 
1219 1 -0.000646684 0.00708166 -0.0157363 0.000656 0.0133734 0.0239605 0.00857101 2650 
963 1 -0.00570055 0.00733425 -0.0151476 0.000116 -0.029376 -0.065298 -0.0412241 2650 
1620 1 -0.0030985 0.00808714 -0.0156712 0.000116 0.0529387 0.0514306 -0.00503745 2650 
2969 1 -0.00142663 0.00817718 -0.015091 0.000656 -0.00781599 0.0183331 -4.51083e-05 2650 
1483 1 -0.000318923 0.00851752 -0.0153125 0.000423 -0.0010087 0.0213686 -0.00667363 2650 
3830 1 -0.006879 0.00946568 -0.015411 4.2e-05 0 -0.011753 0 2650 
86 1 -0.002064 0.00916968 -0.015055 0.000116 0 -0.011753 0 2650 
3177 1 -0.001068 0.00896968 -0.015412 4.2e-05 0 -0.011753 0 2650 
1228 1 -0.00143556 0.00925662 -0.0150124 0.000423 -0.0026547 0.0243513 0.000515369 2650 
371 1 -0.000457946 0.00998094 -0.0152712 0.000423 0.000724313 -0.00601752 -0.0061741 2650 
938 1 -0.000869 0.0103757 -0.015416 0.000116 0 -0.011753 0 2650 
568 1 -0.00265713 0.0167131 -0.0152726 0.000423 0.0646767 0.0324089 0.0265592 2650 
142 1 -0.00430574 0.0233576 -0.0152707 0.000423 -0.0600809 0.0373384 0.0570253 2650 
913 1 -0.00102533 0.0244918 -0.0150558 0.000423 -0.0131935 0.0940792 0.0439723 2650 
545 1 -0.00233089 -0.00164589 -0.0146915 4.2e-05 -0.000252069 0.0758595 -0.196498 2650 
2827 1 -0.00508228 -0.00118899 -0.0142533 0.000116 -0.0201753 -0.0226203 0.0017234 2650 
2817 1 -0.00180914 -0.00135124 -0.014417 0.000116 0.0100645 -0.056664 0.00630574 2650 
1053 1 -0.007469 -0.00047632 -0.014946 0.000116 0 -0.011753 0 2650 
2332 1 -0.00430583 0.000141964 -0.0142652 0.000423 -0.0114447 -0.00779769 0.00753018 2650 
222 1 -0.00219347 7.59491e-05 -0.0147658 0.000656 -0.0189906 -0.0240038 0.0410277 2650 
2922 1 -0.00657804 0.00153635 -0.0146879 0.000116 -0.0108987 -0.0113206 0.0393947 2650 
220 1 -0.00363134 0.00259319 -0.0148369 4.2e-05 0.00197382 0.00663681 0.00671825 2650 
1171 1 -0.00868993 0.00420042 -0.0143141 0.000116 -0.0146011 -0.0168948 -0.0399555 2650 
3365 1 -0.002315 0.00579168 -0.014552 0.000116 0 -0.011753 0 2650 
3950 1 -0.00713889 0.00647021 -0.0145211 0.000656 0.000269197 -0.0034931 0.0278554 2650 
1618 1 -0.00839439 0.00763502 -0.0143641 0.000116 -0.0222988 0.059375 0.0201275 2650 
581 1 -0.00560421 0.00867473 -0.0143394 0.000423 -0.000593495 -0.0101803 -0.00423903 2650 
1827 1 -0.0065777 0.00944701 -0.0142204 0.000116 -0.0386186 0.00754243 -0.0442276 2650 
233 1 -0.00477876 0.00980288 -0.0145815 0.000423 0.000342891 -0.00976437 -0.0328705 2650 
3669 1 -0.00025956 0.0106618 -0.014655 0.000423 0.00220454 -0.00743356 -0.00383523 2650 
3644 1 -0.00092728 0.012397 -0.0148552 0.000423 -0.00432743 0.00711996 -0.0325914 2650 
478 1 -0.00746973 0.0149791 -0.0142449 0.000423 -0.0255767 0.012458 -0.051203 2650 
3964 1 -0.0671033 -0.0273541 -0.0141458 0.000423 -0.51629 0.113054 2.44911 2650 
3391 1 -0.0674843 -0.0181888 -0.0141802 4.2e-05 -0.658027 0.0872986 3.13158 2650 
1468 1 -0.00452959 -0.00239133 -0.0137069 0.000423 -0.0197001 -0.0470204 -0.0326717 2650 
1022 1 -0.0028211 -0.00213419 -0.0139594 0.000423 -0.0361806 0.0454744 -0.169588 2650 
509 1 -0.0073611 -0.000371424 -0.014179 0.000116 -0.00521486 0.00944493 -0.0325939 2650 
3733 1 -0.0064975 0.00112464 -0.0137464 0.000656 -0.0232119 0.0173762 0.0152854 2650 
1032 1 -0.00784319 0.0039077 -0.0138073 0.000423 -0.0173367 -0.00904293 -0.0556269 2650 
3587 1 -0.00605394 0.0039242 -0.0141009 0.000116 -0.0152422 -0.0151231 -0.00566973 2650 
234 1 -0.00104106 0.00378909 -0.0136042 0.000423 0.0351287 -0.0167305 0.0264562 2650 
2512 1 -0.00952845 0.0043466 -0.0136705 0.000116 0.018779 -0.0192413 0.00230208 2650 
4165 1 -0.00517215 0.00408066 -0.013741 0.000656 -6.3943e-05 -0.032131 0.00827285 2650 
2918 1 -0.00786453 0.00493282 -0.0137949 0.000116 -0.0132236 0.0205789 -0.0380223 2650 
1288 1 -0.002467 0.00709468 -0.014044 0.000116 0 -0.011753 0 2650 
4227 1 -0.000351281 0.00698165 -0.0138955 0.000116 -0.00921828 -0.0161692 0.0154311 2650 
2322 1 -0.00830871 0.00723555 -0.0136 0.000656 -0.0108707 -0.010103 0.00337555 2650 
3515 1 -0.0071633 0.0077739 -0.0141279 0.000656 -0.0103794 -0.0121819 0.00307219 2650 
508 1 -0.00955893 0.00830602 -0.0135214 0.000116 -0.0609474 0.0130298 0.0475554 2650 
4190 1 -0.00833522 0.00856591 -0.0141972 0.000423 -0.009489 7.8582e-05 0.00632979 2650 
2222 1 -0.000438693 0.00802187 -0.0141687 0.000423 -0.00549102 -0.00568171 -0.00117535 2650 
4257 1 -0.0082348 0.010003 -0.0140739 0.000116 0.0101268 -0.0416798 0.0036163 2650 
1476 1 -0.006941 0.00989468 -0.013435 0.000423 0 -0.011753 0 2650 
1986 1 -0.00292697 0.00981095 -0.0137992 0.000656 0.00762539 0.0149956 0.0116892 2650 
1409 1 -0.00044 0.0108747 -0.013868 0.000116 0 -0.011753 0 2650 
3007 1 -0.00130209 0.0114052 -0.0139339 0.000423 -0.0135196 -0.00505473 -0.0280609 2650 
3216 1 -0.00461059 0.026092 -0.0136126 0.000423 -0.00544148 0.107266 0.0543995 2650 
2467 1 -0.00116012 0.0308513 -0.0134574 0.000423 0.0301791 0.103437 0.0421276 2650 
1781 1 -0.0673511 -0.0339834 -0.0129145 0.000423 -0.210085 0.505283 1.09563 2650 
2247 1 -0.0673641 -0.0255154 -0.0128465 0.000423 -0.455146 0.11957 2.38646 2650 
1185 1 -0.0677068 -0.025103 -0.0126813 0.000116 -0.411897 0.318404 2.19901 2650 
482 1 -0.0673893 -0.0216809 -0.0127132 0.000423 -0.307308 -0.0849686 1.62896 2650 
1343 1 -0.0672996 -0.0173854 -0.0131802 0.000423 -0.565177 -0.183971 2.88585 2650 
3153 1 -0.00159476 -0.00274341 -0.0132506 0.000116 0.0575311 -0.0297429 -0.0490481 2650 
2172 1 -0.00794052 -0.00164227 -0.0130011 0.000116 0.0554355 0.00150652 -0.0523356 2650 
3551 1 -0.00648304 0.000263075 -0.0130446 0.000423 -0.015336 0.00523015 0.00637389 2650 
541 1 -0.00638975 0.000761994 -0.0126439 4.2e-05 -0.0143735 0.00954058 0.00936495 2650 
4126 1 -0.00478877 0.000138751 -0.0132608 0.000116 -0.0261531 0.0084042 0.00402279 2650 
2525 1 -0.004063 0.00132168 -0.013231 4.2e-05 0 -0.011753 0 2650 
2619 1 -0.005851 0.00213768 -0.012854 0.000116 0 -0.011753 0 2650 
3880 1 -0.010277 0.00305368 -0.012913 0.000423 0 -0.011753 0 2650 
2609 1 -0.00886 0.00286168 -0.013248 0.000116 0 -0.011753 0 2650 
3917 1 -0.003984 0.00362268 -0.012703 0.000116 0 -0.011753 0 2650 
2059 1 -0.003583 0.00383168 -0.012756 0.000116 0 -0.011753 0 2650 
3322 1 -0.00347768 0.0045862 -0.0128511 0.000423 0.00110678 0.0140263 0.0123959 2650 
2596 1 -0.00958767 0.00496041 -0.0127213 0.000116 -0.0442582 -0.0431064 0.0384975 2650 
2912 1 -0.00562464 0.00478051 -0.0132432 0.000116 0.00196064 0.0151142 0.00117299 2650 
4078 1 -0.00916688 0.00622502 -0.0127044 0.000423 -0.0196946 -0.00953845 0.00130892 2650 
450 1 -0.00638017 0.00560692 -0.0131937 0.000656 0.0112424 0.0469319 0.00733295 2650 
104 1 -0.0029959 0.00591736 -0.0131451 4.2e-05 -0.00674979 0.0150481 0.0116551 2650 
1427 1 -0.002948 0.00616268 -0.013376 4.2e-05 0 -0.011753 0 2650 
3446 1 -0.00244819 0.00572791 -0.0126584 0.000423 0.014297 -0.016402 -0.00312272 2650 
2913 1 -0.00774825 0.00675878 -0.0132783 0.000116 -0.028239 -0.0119827 -0.0130286 2650 
4296 1 -0.00368739 0.00666446 -0.0132741 0.000423 -0.0431702 0.0421068 0.0473826 2650 
1237 1 -0.0100212 0.00787229 -0.0131438 0.000423 0.0147702 0.0203613 -0.00922036 2650 
3259 1 -0.00876348 0.00753275 -0.0129954 0.000116 -0.0089878 -0.00810535 0.00538998 2650 
1584 1 -0.00151252 0.00764038 -0.0128639 0.000423 -0.00963006 0.0395817 0.04039 2650 
1795 1 -0.00873051 0.00815884 -0.0129847 0.000423 0.00165908 -0.0118589 -0.000959055 2650 
1250 1 -0.00791944 0.0086733 -0.0131271 0.000423 -0.0109693 -0.0170514 -0.0143142 2650 
1769 1 -0.00648039 0.00863903 -0.0133498 0.000656 -0.0148717 0.000652235 -0.0101128 2650 
2483 1 -0.00905268 0.00925985 -0.0130037 0.000116 0.00258646 -0.0218162 0.0129531 2650 
205 1 -0.000744 0.00887868 -0.01334 0.000116 0 -0.011753 0 2650 
289 1 -0.00156194 0.00974662 -0.0131436 0.000116 -0.0188061 -0.000940224 -0.0594549 2650 
1775 1 -0.00822851 0.0116354 -0.013046 0.000423 -7.29146e-05 -0.011186 -0.000346901 2650 
949 1 -0.00662043 0.0111644 -0.0127912 0.000116 -0.0176518 0.0277962 -0.00593252 2650 
3632 1 -0.00969957 0.0127959 -0.0133927 0.000423 -0.0216519 0.000467483 0.0139725 2650 
959 1 -0.00804024 0.0131277 -0.013286 0.000116 -0.0723779 0.0623805 -0.0339909 2650 
843 1 -0.067763 -0.0436316 -0.0123773 0.000116 -0.16624 -0.103428 0.910126 2650 
3248 1 -0.0678176 -0.0118659 -0.0120745 0.000116 -0.562646 -0.212765 3.16015 2650 
1072 1 -0.0246495 -0.00432918 -0.0120953 0.000116 -3.8292 -0.112742 -1.87895 2650 
330 1 -0.00816566 -0.00312406 -0.0123259 4.2e-05 -0.0696064 -0.0147686 0.0345761 2650 
4097 1 -0.0088738 -0.00222323 -0.0123176 0.000423 -0.0116536 0.00229875 0.0371095 2650 
2468 1 -0.00368962 -0.00193943 -0.012129 0.000423 -0.0504222 0.0211365 0.000191011 2650 
1763 1 -0.001143 -0.00199232 -0.012442 0.000656 0 -0.011753 0 2650 
3191 1 -0.00728458 -0.000286033 -0.0125511 0.000656 -0.0197381 0.00193499 -0.0014393 2650 
1422 1 -0.003881 -0.00014632 -0.012349 4.2e-05 0 -0.011753 0 2650 
1799 1 -0.0032301 0.000661134 -0.0120565 0.000423 7.10678e-05 -0.0118308 4.63239e-05 2650 
3956 1 -0.0090437 0.00155092 -0.0123109 0.000656 -0.000640959 -0.0104529 -0.000368355 2650 
3201 1 -0.00632324 0.00152371 -0.0122864 0.000423 -0.00608722 0.0216696 0.0089772 2650 
3389 1 -0.010415 0.00211968 -0.012026 0.000116 0 -0.011753 0 2650 
3645 1 -0.00600688 0.00329566 -0.0124675 0.000423 -0.0357151 -0.0039173 0.0164321 2650 
1192 1 -0.00519931 0.00370592 -0.0120683 0.000116 -0.0160738 0.0171838 -0.0228619 2650 
411 1 -0.010516 0.0044963 -0.0120909 0.000116 -0.00787832 -0.00657823 -8.20909e-05 2650 
3826 1 -0.009208 0.00401468 -0.012552 0.000116 0 -0.011753 0 2650 
708 1 -0.00280538 0.00446117 -0.0123487 0.000423 0.0112279 -0.00894022 0.00239788 2650 
3380 1 -0.00224151 0.00432813 -0.0120295 0.000116 -0.00133046 -0.0120531 0.0302183 2650 
2194 1 -0.00225131 0.00466386 -0.012455 4.2e-05 0.00491046 0.00111596 0.00228026 2650 
2957 1 -0.00150958 0.00455731 -0.0122624 4.2e-05 0.0205169 0.0248349 -0.000218849 2650 
3316 1 -0.008979 0.00476768 -0.012376 0.000423 0 -0.011753 0 2650 
1261 1 -0.00745015 0.00492875 -0.0124464 0.000423 -0.000148786 -0.00207045 -0.0014312 2650 
3362 1 -0.00266057 0.00508121 -0.0123308 0.000116 0.000350619 -0.00253681 -0.00404217 2650 
3030 1 -0.001189 0.00627768 -0.012596 0.000116 0 -0.011753 0 2650 
2219 1 -0.00292483 0.00672628 -0.0122632 0.000423 0.0430827 0.0512131 0.0198144 2650 
445 1 -0.00964329 0.0072946 -0.0122743 0.000656 -0.00157651 -0.00352117 -0.00927671 2650 
4318 1 -0.00860636 0.0076133 -0.0123058 0.000423 0.000634828 -0.00541564 0.00164809 2650 
1495 1 -0.004483 0.00774568 -0.012591 0.000116 0 -0.011753 0 2650 
3684 1 -0.00427067 0.00785513 -0.0125477 0.000116 0.00413104 -0.0230128 -0.00941473 2650 
2344 1 -0.000925969 0.00726292 -0.0122266 0.000423 0.00597873 -0.023338 -0.0226217 2650 
4179 1 -0.00721907 0.00866421 -0.0122474 0.000423 -0.00767678 -0.0221048 -0.00852388 2650 
3173 1 -0.004958 0.00840668 -0.012321 4.2e-05 0 -0.011753 0 2650 
1519 1 -0.00331375 0.00827437 -0.0119479 0.000116 -0.0494896 0.0341374 0.0501115 2650 
2630 1 -0.001036 0.00861468 -0.012074 4.2e-05 0 -0.011753 0 2650 
4002 1 -0.000443 0.00843868 -0.01223 0.000116 0 -0.011753 0 2650 