ITEM: TIMESTEP
194364
ITEM: NUMBER OF ATOMS
4382
ITEM: BOX BOUNDS ff ff ff
-0.15 0.15
-0.15 0.06
-0.15 0.15
ITEM: ATOMS id type x y z radius vx vy vz density 
1845 1 -0.00622642 -0.0194566 -0.0327492 0.000116 0.580036 -3.534 -8.05791 2650 
3810 1 -0.0175511 -0.0340935 -0.0294403 0.000116 -2.51677 -5.81018 -4.95198 2650 
606 1 -0.000183 0.00531 -0.016592 0.000116 0 -0.011753 0 2650 
2713 1 -0.000763 0.012281 -0.016767 0.000116 0 -0.011753 0 2650 
3503 1 -0.001341 0.012639 -0.016637 4.2e-05 0 -0.011753 0 2650 
4116 1 -0.004072 -0.000346999 -0.016193 0.000116 0 -0.011753 0 2650 
93 1 -0.00354 6.40008e-05 -0.016299 0.000116 0 -0.011753 0 2650 
1991 1 -0.002768 0.001643 -0.01599 0.000656 0 -0.011753 0 2650 
736 1 -0.003429 0.003235 -0.016474 0.000116 0 -0.011753 0 2650 
2013 1 -0.003166 0.004414 -0.016002 0.000423 0 -0.011753 0 2650 
2301 1 -0.004222 0.007083 -0.016305 4.2e-05 0 -0.011753 0 2650 
3546 1 -0.002797 0.006372 -0.016252 0.000423 0 -0.011753 0 2650 
188 1 -0.00068 0.006852 -0.016516 0.000116 0 -0.011753 0 2650 
3616 1 -0.000938 0.007647 -0.016074 4.2e-05 0 -0.011753 0 2650 
3934 1 -0.001977 0.010072 -0.016218 0.000116 0 -0.011753 0 2650 
1357 1 -0.001313 0.010488 -0.015969 0.000423 0 -0.011753 0 2650 
225 1 -4e-05 0.011655 -0.015887 0.000656 0 -0.011753 0 2650 
1371 1 -0.001566 0.012914 -0.016271 0.000423 0 -0.011753 0 2650 
2806 1 -0.00191 -0.002643 -0.015728 0.000116 0 -0.011753 0 2650 
691 1 -0.000661 -0.002704 -0.015761 0.000423 0 -0.011753 0 2650 
3441 1 -0.005522 -0.002013 -0.01502 0.000423 0 -0.011753 0 2650 
330 1 -0.001698 -0.000671999 -0.015557 4.2e-05 0 -0.011753 0 2650 
3733 1 -0.002363 -0.000624999 -0.015249 0.000656 0 -0.011753 0 2650 
4038 1 -0.001501 -0.000653999 -0.015239 0.000116 0 -0.011753 0 2650 
2965 1 -2.2e-05 -0.000365999 -0.015341 4.2e-05 0 -0.011753 0 2650 
3156 1 -0.000805 0.001192 -0.015242 0.000116 0 -0.011753 0 2650 
4187 1 -0.000409 0.002108 -0.015131 0.000423 0 -0.011753 0 2650 
3645 1 -0.000562 0.003109 -0.015703 0.000423 0 -0.011753 0 2650 
2729 1 -0.0048302 0.00331286 -0.015429 0.000116 -0.712481 0.0735545 1.08199 2650 
1679 1 -0.00363934 0.00371991 -0.0153857 0.000423 -0.00171971 -0.000820303 0.00170729 2650 
1569 1 -0.001572 0.003879 -0.015407 0.000423 0 -0.011753 0 2650 
3147 1 -0.001711 0.004427 -0.015157 0.000116 0 -0.011753 0 2650 
2399 1 -0.002418 0.005524 -0.015541 0.000116 0 -0.011753 0 2650 
4296 1 -0.001562 0.006122 -0.015499 0.000423 0 -0.011753 0 2650 
1986 1 -0.004095 0.006993 -0.015268 0.000656 0 -0.011753 0 2650 
3789 1 -0.002891 0.007427 -0.015118 0.000116 0 -0.011753 0 2650 
2969 1 -0.001381 0.008094 -0.015354 0.000656 0 -0.011753 0 2650 
978 1 -0.005372 0.00877 -0.015286 0.000116 0 -0.011753 0 2650 
3830 1 -0.006879 0.011624 -0.015411 4.2e-05 0 -0.011753 0 2650 
86 1 -0.002064 0.011328 -0.015055 0.000116 0 -0.011753 0 2650 
3177 1 -0.001068 0.011128 -0.015412 4.2e-05 0 -0.011753 0 2650 
938 1 -0.000869 0.012534 -0.015416 0.000116 0 -0.011753 0 2650 
3632 1 -0.006134 0.01325 -0.015144 0.000423 0 -0.011753 0 2650 
2256 1 -0.001753 -0.002562 -0.014775 0.000116 0 -0.011753 0 2650 
747 1 -0.001416 -0.002542 -0.014317 0.000116 0 -0.011753 0 2650 
3502 1 -0.001236 -0.001567 -0.014816 4.2e-05 0 -0.011753 0 2650 
1640 1 -0.001358 -0.000233999 -0.014495 4.2e-05 0 -0.011753 0 2650 
2313 1 -0.005044 0.000610001 -0.014923 0.000656 0 -0.011753 0 2650 
2413 1 -0.003433 0.000448001 -0.014868 4.2e-05 0 -0.011753 0 2650 
1053 1 -0.007469 0.001682 -0.014946 0.000116 0 -0.011753 0 2650 
2332 1 -0.003268 0.001973 -0.014853 0.000423 0 -0.011753 0 2650 
3239 1 -0.002155 0.001892 -0.014442 0.000116 0 -0.011753 0 2650 
1589 1 -0.006868 0.003154 -0.01466 0.000423 0 -0.011753 0 2650 
2547 1 -0.005876 0.002809 -0.014675 0.000423 0 -0.011753 0 2650 
3385 1 -0.005132 0.002615 -0.014637 0.000116 0 -0.011753 0 2650 
249 1 -0.00408489 0.00282856 -0.0143511 0.000423 -0.744038 -0.334613 -0.156286 2650 
4210 1 -0.000205678 0.00347295 -0.0143431 0.000423 0.119148 -1.28416 -1.21882 2650 
220 1 -0.003649 0.004587 -0.014897 4.2e-05 0 -0.011753 0 2650 
3121 1 -0.007407 0.005406 -0.014654 0.000423 0 -0.011753 0 2650 
4165 1 -0.005563 0.004936 -0.014782 0.000656 0 -0.011753 0 2650 
104 1 -0.00218 0.004836 -0.014554 4.2e-05 0 -0.011753 0 2650 
3322 1 -0.003902 0.006045 -0.014522 0.000423 0 -0.011753 0 2650 
728 1 -0.00133505 0.00627907 -0.0147257 0.000116 -0.114691 0.092011 -0.218969 2650 
2438 1 -0.005612 0.007885 -0.014612 0.000423 0 -0.011753 0 2650 
3564 1 -0.000147 0.007313 -0.014738 0.000423 0 -0.011753 0 2650 
713 1 -0.003882 0.008194 -0.014783 0.000423 0 -0.011753 0 2650 
3365 1 -0.002315 0.00795 -0.014552 0.000116 0 -0.011753 0 2650 
4190 1 -0.007319 0.00962 -0.014559 0.000423 0 -0.011753 0 2650 
3515 1 -0.004726 0.009949 -0.014755 0.000656 0 -0.011753 0 2650 
884 1 -0.003874 0.011382 -0.014709 0.000656 0 -0.011753 0 2650 
1228 1 -0.001302 0.011405 -0.014946 0.000423 0 -0.011753 0 2650 
371 1 -0.000507 0.011203 -0.014221 0.000423 0 -0.011753 0 2650 
3229 1 -0.006614 -0.002444 -0.01374 0.000423 0 -0.011753 0 2650 
1943 1 -0.002925 -0.003016 -0.01374 0.000116 0 -0.011753 0 2650 
2705 1 -0.001432 -0.002505 -0.013674 0.000116 0 -0.011753 0 2650 
3622 1 -0.005521 -0.00168 -0.013445 0.000656 0 -0.011753 0 2650 
327 1 -0.003849 -0.002324 -0.013874 4.2e-05 0 -0.011753 0 2650 
1393 1 -0.009523 -0.001217 -0.013534 0.000116 0 -0.011753 0 2650 
2939 1 -0.008405 -0.001521 -0.013483 0.000116 0 -0.011753 0 2650 
2685 1 -0.006984 -0.000498999 -0.013534 0.000423 0 -0.011753 0 2650 
2783 1 -0.003328 -0.000181999 -0.013758 0.000423 0 -0.011753 0 2650 
4126 1 -0.001667 -0.000108999 -0.013741 0.000116 0 -0.011753 0 2650 
3303 1 -0.0065 0.000469001 -0.014199 0.000656 0 -0.011753 0 2650 
3778 1 -0.003893 0.001335 -0.013816 0.000423 0 -0.011753 0 2650 
1901 1 -0.00240092 0.00199304 -0.0134541 0.000423 -0.0507742 -0.0533762 0.0503681 2650 
1620 1 -0.008456 0.003354 -0.013856 0.000116 0 -0.011753 0 2650 
3587 1 -0.006279 0.004611 -0.013694 0.000116 0 -0.011753 0 2650 
1219 1 -0.005131 0.004051 -0.013785 0.000656 0 -0.011753 0 2650 
2485 1 -0.006627 0.004958 -0.014195 0.000116 0 -0.011753 0 2650 
1327 1 -0.00357634 0.00530059 -0.0136554 0.000656 -0.359247 0.199542 -0.0249989 2650 
2777 1 -0.004058 0.006645 -0.013945 0.000423 0 -0.011753 0 2650 
3035 1 -0.00875 0.007557 -0.013893 0.000116 0 -0.011753 0 2650 
4365 1 -0.00226313 0.00740082 -0.0139271 0.000116 -0.339926 0.407991 -0.0708734 2650 
1900 1 -0.0012338 0.00729773 -0.0136414 0.000423 -0.157299 0.486079 -0.0108601 2650 
1288 1 -0.002467 0.009253 -0.014044 0.000116 0 -0.011753 0 2650 
1346 1 -0.001357 0.008738 -0.014077 0.000423 0 -0.011753 0 2650 
1974 1 -0.0021 0.009974 -0.01365 4.2e-05 0 -0.011753 0 2650 
171 1 -0.001998 0.009875 -0.013459 0.000116 0 -0.011753 0 2650 
2222 1 -0.000169 0.009882 -0.014111 0.000423 0 -0.011753 0 2650 
581 1 -0.005568 0.010774 -0.014167 0.000423 0 -0.011753 0 2650 
2763 1 -0.0033011 0.0106594 -0.0140014 0.000423 -0.192156 -0.199279 -0.712733 2650 
4314 1 -0.002273 0.011081 -0.013891 0.000423 0 -0.011753 0 2650 
1476 1 -0.006941 0.012053 -0.013435 0.000423 0 -0.011753 0 2650 
3669 1 -0.000597 0.012159 -0.014068 0.000423 0 -0.011753 0 2650 
1409 1 -0.00044 0.013033 -0.013868 0.000116 0 -0.011753 0 2650 
1957 1 -0.002061 -0.003214 -0.012986 0.000116 0 -0.011753 0 2650 
428 1 -0.00922 -0.002475 -0.013206 0.000116 0 -0.011753 0 2650 
3015 1 -0.008364 -0.00253 -0.013043 0.000423 0 -0.011753 0 2650 
827 1 -0.005975 -0.002648 -0.013005 0.000116 0 -0.011753 0 2650 
167 1 -0.004273 -0.00249 -0.012826 0.000116 0 -0.011753 0 2650 
843 1 -0.00399594 -0.00260973 -0.0128223 0.000116 -0.933075 -0.590113 -0.321677 2650 
2732 1 -0.002992 -0.002555 -0.013183 0.000116 0 -0.011753 0 2650 
3633 1 -0.00941 -0.001951 -0.013111 0.000423 0 -0.011753 0 2650 
1487 1 -0.004643 -0.002081 -0.013241 0.000116 0 -0.011753 0 2650 
3295 1 -0.00153144 -0.00138437 -0.0129926 0.000656 -0.0326807 -0.0261897 -0.0816896 2650 
3551 1 -0.005293 0.001394 -0.013215 0.000423 0 -0.011753 0 2650 
1059 1 -0.006922 0.00201 -0.012642 0.000116 0 -0.011753 0 2650 
1125 1 -0.000165 0.001981 -0.013134 0.000423 0 -0.011753 0 2650 
2701 1 -0.005757 0.002746 -0.013076 0.000116 0 -0.011753 0 2650 
4371 1 -0.000719 0.002792 -0.012831 0.000116 0 -0.011753 0 2650 
2283 1 -0.000701 0.003107 -0.012847 0.000116 0 -0.011753 0 2650 
2525 1 -0.004063 0.00348 -0.013231 4.2e-05 0 -0.011753 0 2650 
1595 1 -0.007474 0.004138 -0.012756 0.000423 0 -0.011753 0 2650 
2619 1 -0.005851 0.004296 -0.012854 0.000116 0 -0.011753 0 2650 
3880 1 -0.010277 0.005212 -0.012913 0.000423 0 -0.011753 0 2650 
2609 1 -0.00886 0.00502 -0.013248 0.000116 0 -0.011753 0 2650 
933 1 -0.004641 0.005383 -0.013316 0.000423 0 -0.011753 0 2650 
2194 1 -0.002781 0.005434 -0.012701 4.2e-05 0 -0.011753 0 2650 
3917 1 -0.003984 0.005781 -0.012703 0.000116 0 -0.011753 0 2650 
2059 1 -0.003583 0.00599 -0.012756 0.000116 0 -0.011753 0 2650 
4241 1 -0.00121 0.005865 -0.012987 0.000116 0 -0.011753 0 2650 
2918 1 -0.00757 0.006371 -0.012948 0.000116 0 -0.011753 0 2650 
4078 1 -0.005942 0.007317 -0.013134 0.000423 0 -0.011753 0 2650 
2322 1 -0.00688 0.008522 -0.013337 0.000656 0 -0.011753 0 2650 
1427 1 -0.002948 0.008321 -0.013376 4.2e-05 0 -0.011753 0 2650 
3259 1 -0.008055 0.009386 -0.013388 0.000116 0 -0.011753 0 2650 
4318 1 -0.007675 0.00906 -0.012829 0.000423 0 -0.011753 0 2650 
1769 1 -0.004822 0.010241 -0.013243 0.000656 0 -0.011753 0 2650 
1795 1 -0.008775 0.01032 -0.012959 0.000423 0 -0.011753 0 2650 
205 1 -0.000744 0.011037 -0.01334 0.000116 0 -0.011753 0 2650 
1654 1 -0.00269839 0.0123093 -0.0133701 0.000656 0.0912193 0.315104 -0.848524 2650 
4160 1 -0.006657 0.013403 -0.013271 4.2e-05 0 -0.011753 0 2650 
1525 1 -0.00377323 0.0130155 -0.013175 0.000116 -0.322985 0.455003 -0.523258 2650 
1775 1 -0.008218 0.013712 -0.012996 0.000423 0 -0.011753 0 2650 
3294 1 -0.00325338 0.0137183 -0.0130499 0.000656 -0.153178 0.532354 -0.151969 2650 
3644 1 -0.000733 0.013708 -0.013392 0.000423 0 -0.011753 0 2650 
2722 1 -0.00386315 0.0142224 -0.0130138 0.000116 -0.375324 0.405951 -0.00725073 2650 
4068 1 -0.001953 -0.002789 -0.012327 0.000423 0 -0.011753 0 2650 
2957 1 -0.010592 -0.002271 -0.012102 4.2e-05 0 -0.011753 0 2650 
2238 1 -0.00701 -0.002057 -0.01254 0.000423 0 -0.011753 0 2650 
4150 1 -0.001319 -0.001946 -0.012208 0.000116 0 -0.011753 0 2650 
868 1 -0.000201 -0.002321 -0.012301 0.000116 0 -0.011753 0 2650 
3261 1 -0.010456 -0.001097 -0.012294 0.000116 0 -0.011753 0 2650 
3200 1 -0.006116 -0.001137 -0.012539 0.000423 0 -0.011753 0 2650 
2468 1 -0.003167 -0.000121999 -0.012131 0.000423 0 -0.011753 0 2650 
545 1 -0.002328 -0.000494999 -0.012432 4.2e-05 0 -0.011753 0 2650 
1924 1 -0.0106114 0.000299433 -0.0124695 0.000423 -0.0042328 -0.0348738 -0.087847 2650 
950 1 -0.010031 0.000771001 -0.011866 0.000116 0 -0.011753 0 2650 
250 1 -0.009469 0.000311001 -0.012384 0.000423 0 -0.011753 0 2650 
2819 1 -0.007468 3.90008e-05 -0.012046 0.000116 0 -0.011753 0 2650 
4056 1 -0.00653982 0.000522349 -0.0122263 0.000656 0.0696068 -0.0645912 -0.0109653 2650 
1763 1 -0.001143 0.000166001 -0.012442 0.000656 0 -0.011753 0 2650 
2253 1 -0.00726025 0.00136592 -0.0121821 0.000423 0.295133 0.288707 -0.136222 2650 
3643 1 -0.004315 0.001213 -0.012192 0.000423 0 -0.011753 0 2650 
3637 1 -0.002026 0.001345 -0.012108 0.000423 0 -0.011753 0 2650 
3411 1 -0.009662 0.00194 -0.012148 0.000656 0 -0.011753 0 2650 
2293 1 -0.006255 0.001904 -0.012281 0.000116 0 -0.011753 0 2650 
1422 1 -0.003881 0.002012 -0.012349 4.2e-05 0 -0.011753 0 2650 
623 1 -0.005429 0.002519 -0.012246 0.000116 0 -0.011753 0 2650 
1799 1 -0.003237 0.002827 -0.012061 0.000423 0 -0.011753 0 2650 
2813 1 -1e-05 0.002679 -0.012237 0.000116 0 -0.011753 0 2650 
3956 1 -0.008956 0.003598 -0.012273 0.000656 0 -0.011753 0 2650 
3201 1 -0.004366 0.003573 -0.012379 0.000423 0 -0.011753 0 2650 
2690 1 -0.000333 0.00345 -0.012265 0.000423 0 -0.011753 0 2650 
3389 1 -0.010415 0.004278 -0.012026 0.000116 0 -0.011753 0 2650 
856 1 -0.00389 0.004497 -0.0119 0.000116 0 -0.011753 0 2650 
1657 1 -0.008501 0.005469 -0.011991 0.000656 0 -0.011753 0 2650 
2471 1 -0.00581 0.005447 -0.012574 0.000423 0 -0.011753 0 2650 
411 1 -0.009436 0.005946 -0.012079 0.000116 0 -0.011753 0 2650 
3826 1 -0.009208 0.006173 -0.012552 0.000116 0 -0.011753 0 2650 
3316 1 -0.008979 0.006926 -0.012376 0.000423 0 -0.011753 0 2650 
1261 1 -0.007462 0.00683 -0.012403 0.000423 0 -0.011753 0 2650 
3362 1 -0.002672 0.006939 -0.012199 0.000116 0 -0.011753 0 2650 
1590 1 -0.008874 0.00812 -0.012037 0.000423 0 -0.011753 0 2650 
4066 1 -0.006253 0.00836 -0.011956 0.000656 0 -0.011753 0 2650 
3446 1 -0.002592 0.007933 -0.012627 0.000423 0 -0.011753 0 2650 
3030 1 -0.001189 0.008436 -0.012596 0.000116 0 -0.011753 0 2650 
70 1 -0.010029 0.009361 -0.01242 0.000116 0 -0.011753 0 2650 
191 1 -0.011348 0.009757 -0.012254 0.000116 0 -0.011753 0 2650 
1495 1 -0.004483 0.009904 -0.012591 0.000116 0 -0.011753 0 2650 
3847 1 -0.009739 0.010358 -0.012406 0.000656 0 -0.011753 0 2650 
3173 1 -0.004958 0.010565 -0.012321 4.2e-05 0 -0.011753 0 2650 
2109 1 -0.001932 0.010704 -0.012277 0.000423 0 -0.011753 0 2650 
2630 1 -0.001036 0.010773 -0.012074 4.2e-05 0 -0.011753 0 2650 
4002 1 -0.000443 0.010597 -0.01223 0.000116 0 -0.011753 0 2650 
1250 1 -0.007399 0.011083 -0.012448 0.000423 0 -0.011753 0 2650 
911 1 -0.00402701 0.0116233 -0.0123572 0.000423 -0.0142707 -0.015291 -0.00505979 2650 
65 1 -0.009488 0.011978 -0.011959 0.000116 0 -0.011753 0 2650 
1423 1 -0.00145 0.012253 -0.012526 4.2e-05 0 -0.011753 0 2650 
2483 1 -0.008006 0.013135 -0.012441 0.000116 0 -0.011753 0 2650 
1578 1 -0.007713 0.012974 -0.011972 0.000423 0 -0.011753 0 2650 
2205 1 -0.004822 0.013424 -0.012334 0.000656 0 -0.011753 0 2650 
704 1 -0.01034 -0.002742 -0.011479 0.000423 0 -0.011753 0 2650 
3999 1 -0.005715 -0.002586 -0.011742 0.000423 0 -0.011753 0 2650 
3679 1 -0.012092 -0.001784 -0.011604 0.000116 0 -0.011753 0 2650 
2072 1 -0.009308 -0.001922 -0.011721 0.000116 0 -0.011753 0 2650 
3191 1 -0.003224 -0.001664 -0.011468 0.000656 0 -0.011753 0 2650 
3330 1 -0.00205933 -0.00200741 -0.0115121 0.000423 -0.526329 -0.447625 0.182953 2650 
3505 1 -0.006952 -0.000825999 -0.011235 4.2e-05 0 -0.011753 0 2650 
1022 1 -0.002093 -0.000955999 -0.011454 0.000423 0 -0.011753 0 2650 
123 1 -0.010848 -0.000261999 -0.011246 0.000423 0 -0.011753 0 2650 
2166 1 -0.009005 -0.000415999 -0.011549 0.000116 0 -0.011753 0 2650 
2022 1 -0.004959 -0.000260999 -0.011261 0.000423 0 -0.011753 0 2650 
1826 1 -0.006104 0.000456001 -0.01134 0.000116 0 -0.011753 0 2650 
2827 1 -0.001988 0.000713001 -0.011163 0.000116 0 -0.011753 0 2650 
440 1 -0.00061 0.000476001 -0.011485 4.2e-05 0 -0.011753 0 2650 
4215 1 -0.011184 0.002585 -0.011524 0.000423 0 -0.011753 0 2650 
2279 1 -0.011345 0.003148 -0.01145 0.000116 0 -0.011753 0 2650 
2579 1 -0.008716 0.002595 -0.011261 0.000423 0 -0.011753 0 2650 
1452 1 -0.00142 0.002415 -0.011258 0.000423 0 -0.011753 0 2650 
3535 1 -9.9e-05 0.002888 -0.011488 0.000423 0 -0.011753 0 2650 
3223 1 -0.010476 0.00369 -0.011335 0.000423 0 -0.011753 0 2650 
3894 1 -0.005583 0.003647 -0.011098 0.000116 0 -0.011753 0 2650 
1063 1 -0.009531 0.004202 -0.011683 0.000116 0 -0.011753 0 2650 
3383 1 -0.011681 0.005197 -0.011229 0.000116 0 -0.011753 0 2650 
3235 1 -0.006303 0.004999 -0.011812 0.000423 0 -0.011753 0 2650 
3542 1 -0.003838 0.005373 -0.011253 0.000423 0 -0.011753 0 2650 
2294 1 -0.004894 0.005883 -0.011565 0.000116 0 -0.011753 0 2650 
708 1 -0.00252 0.006079 -0.011391 0.000423 0 -0.011753 0 2650 
1822 1 -0.008034 0.006936 -0.011166 0.000116 0 -0.011753 0 2650 
234 1 -0.004437 0.006909 -0.011677 0.000423 0 -0.011753 0 2650 
878 1 -0.003908 0.006366 -0.011202 4.2e-05 0 -0.011753 0 2650 
1215 1 -0.009596 0.00749 -0.01151 0.000656 0 -0.011753 0 2650 
1758 1 -0.00201 0.007197 -0.01144 4.2e-05 0 -0.011753 0 2650 
4027 1 -0.003218 0.008328 -0.011075 0.000116 0 -0.011753 0 2650 
2409 1 -0.002586 0.008267 -0.011527 4.2e-05 0 -0.011753 0 2650 
222 1 -0.001264 0.008315 -0.011144 0.000656 0 -0.011753 0 2650 
2798 1 -0.008755 0.009367 -0.01131 0.000423 0 -0.011753 0 2650 
2913 1 -0.002971 0.008976 -0.011434 0.000116 0 -0.011753 0 2650 
1617 1 -0.00424 0.010256 -0.011492 0.000116 0 -0.011753 0 2650 
2596 1 -0.001219 0.009811 -0.011432 0.000116 0 -0.011753 0 2650 
823 1 -0.000639 0.009502 -0.011216 0.000423 0 -0.011753 0 2650 
3684 1 -0.00483 0.011538 -0.011273 0.000116 0 -0.011753 0 2650 
1935 1 -0.0023514 0.0119563 -0.0114223 0.000116 -0.0650223 -0.119388 0.0262199 2650 
1663 1 -0.009704 0.012651 -0.011499 0.000423 0 -0.011753 0 2650 
3145 1 -0.006381 0.012719 -0.011273 0.000116 0 -0.011753 0 2650 
1143 1 -0.00207508 0.0126594 -0.011603 0.000423 0.00744219 0.00969658 -0.00437689 2650 
2111 1 -0.009632 0.013638 -0.011343 0.000423 0 -0.011753 0 2650 
976 1 -0.005828 0.014096 -0.011785 0.000116 0 -0.011753 0 2650 
2820 1 -0.007052 -0.002566 -0.010962 0.000116 0 -0.011753 0 2650 
3265 1 -0.006001 -0.002578 -0.010684 0.000116 0 -0.011753 0 2650 
734 1 -0.00166661 -0.00246402 -0.0108245 0.000116 -0.269863 -0.484913 0.308357 2650 
3426 1 -0.000992 -0.00182 -0.010574 0.000423 0 -0.011753 0 2650 
3603 1 -0.004768 -0.001222 -0.010424 0.000116 0 -0.011753 0 2650 
508 1 -0.00526977 -0.00111579 -0.0106274 0.000116 0.265738 0.0515207 -0.878704 2650 
4373 1 -0.004239 -0.00156 -0.010869 4.2e-05 0 -0.011753 0 2650 
15 1 -0.001892 -0.001169 -0.010407 0.000423 0 -0.011753 0 2650 
2848 1 -0.010456 -0.000524999 -0.010698 4.2e-05 0 -0.011753 0 2650 
3640 1 -0.009654 -0.000363999 -0.010891 0.000423 0 -0.011753 0 2650 
2130 1 -0.000316 -0.000104999 -0.010491 0.000423 0 -0.011753 0 2650 
3960 1 -0.008634 0.000383001 -0.010875 0.000423 0 -0.011753 0 2650 
3093 1 -0.002889 7.00008e-05 -0.010782 0.000423 0 -0.011753 0 2650 
1193 1 -4.3e-05 0.000461001 -0.010628 0.000116 0 -0.011753 0 2650 
3866 1 -0.011939 0.001437 -0.01034 0.000423 0 -0.011753 0 2650 
281 1 -0.00973 0.001153 -0.010656 0.000116 0 -0.011753 0 2650 
388 1 -0.008271 0.000979001 -0.010879 0.000116 0 -0.011753 0 2650 
2542 1 -0.005905 0.001264 -0.010347 0.000423 0 -0.011753 0 2650 
3673 1 -0.00272 0.000925001 -0.010833 0.000423 0 -0.011753 0 2650 
3284 1 -0.001323 0.000950001 -0.010635 4.2e-05 0 -0.011753 0 2650 
3530 1 -0.000573 0.00142 -0.010526 0.000423 0 -0.011753 0 2650 
1233 1 -0.012882 0.002579 -0.010287 0.000423 0 -0.011753 0 2650 
4104 1 -0.009745 0.003338 -0.010868 0.000423 0 -0.011753 0 2650 
497 1 -0.00574 0.003573 -0.010398 0.000116 0 -0.011753 0 2650 
124 1 -0.005032 0.003478 -0.01051 0.000423 0 -0.011753 0 2650 
1192 1 -0.004051 0.003797 -0.010435 0.000116 0 -0.011753 0 2650 
602 1 -0.00312502 0.00353918 -0.0104627 0.000423 -0.45083 -0.168239 0.669156 2650 
2912 1 -0.006578 0.00574 -0.010859 0.000116 0 -0.011753 0 2650 
3787 1 -0.006362 0.006176 -0.010668 0.000116 0 -0.011753 0 2650 
760 1 -0.006943 0.006513 -0.010573 4.2e-05 0 -0.011753 0 2650 
861 1 -0.006339 0.006687 -0.010358 0.000116 0 -0.011753 0 2650 
2326 1 -0.011808 0.007466 -0.010725 0.000423 0 -0.011753 0 2650 
2948 1 -0.002008 0.007879 -0.010384 0.000116 0 -0.011753 0 2650 
2500 1 -0.010648 0.008062 -0.010771 0.000116 0 -0.011753 0 2650 
4166 1 -0.004213 0.008169 -0.01052 0.000656 0 -0.011753 0 2650 
3727 1 -0.004412 0.008817 -0.010287 4.2e-05 0 -0.011753 0 2650 
3456 1 -0.003405 0.008954 -0.010654 0.000423 0 -0.011753 0 2650 
1010 1 -0.011662 0.010075 -0.010903 0.000423 0 -0.011753 0 2650 
3132 1 -0.007716 0.010138 -0.01033 0.000116 0 -0.011753 0 2650 
2097 1 -0.00889 0.010631 -0.010395 0.000656 0 -0.011753 0 2650 
89 1 -0.003936 0.010683 -0.010466 0.000116 0 -0.011753 0 2650 
2759 1 -0.011495 0.011631 -0.010915 0.000656 0 -0.011753 0 2650 
1376 1 -0.009927 0.011377 -0.010971 0.000116 0 -0.011753 0 2650 
2261 1 -0.007381 0.011728 -0.010514 0.000116 0 -0.011753 0 2650 
2861 1 -0.000750653 0.0110581 -0.011047 0.000656 0.0605678 -0.014212 0.00425057 2650 
2260 1 -0.008542 0.012349 -0.010892 0.000116 0 -0.011753 0 2650 
233 1 -0.004974 0.011964 -0.010958 0.000423 0 -0.011753 0 2650 
4167 1 -0.003538 0.012071 -0.010916 0.000656 0 -0.011753 0 2650 
499 1 -0.011613 0.013099 -0.010379 0.000116 0 -0.011753 0 2650 
1754 1 -0.008854 0.013205 -0.010611 4.2e-05 0 -0.011753 0 2650 
1913 1 -0.008189 0.013339 -0.010954 0.000423 0 -0.011753 0 2650 
3899 1 -0.004387 0.013223 -0.010427 0.000116 0 -0.011753 0 2650 
1802 1 -0.004638 0.012724 -0.010282 0.000423 0 -0.011753 0 2650 
3595 1 -0.007357 0.013908 -0.010628 0.000116 0 -0.011753 0 2650 
3767 1 -0.006013 0.013824 -0.010843 0.000423 0 -0.011753 0 2650 
963 1 -0.000669 0.013887 -0.010387 0.000116 0 -0.011753 0 2650 
1173 1 -0.00330252 0.0149124 -0.011023 0.000116 -0.970948 1.58155 -1.14727 2650 
1068 1 -0.01118 -0.002765 -0.009643 0.000116 0 -0.011753 0 2650 
4285 1 -0.0094 -0.00263 -0.00984 0.000423 0 -0.011753 0 2650 
3933 1 -0.006596 -0.001859 -0.009623 0.000116 0 -0.011753 0 2650 
821 1 -0.004886 -0.002133 -0.009547 0.000423 0 -0.011753 0 2650 
3652 1 -0.010895 -0.0013603 -0.00959282 0.000423 -0.0103103 -0.0416486 0.00256542 2650 
939 1 -0.001916 -0.000802999 -0.009682 0.000116 0 -0.011753 0 2650 
417 1 -0.004944 -0.000492999 -0.009884 0.000116 0 -0.011753 0 2650 
1630 1 -0.00227 -0.000737999 -0.00958 0.000116 0 -0.011753 0 2650 
3460 1 -0.013084 0.000367001 -0.009951 0.000116 0 -0.011753 0 2650 
2778 1 -0.01202 0.000632001 -0.00976 0.000423 0 -0.011753 0 2650 
3756 1 -0.006298 9.00082e-06 -0.010254 0.000423 0 -0.011753 0 2650 
3311 1 -0.00459147 0.000180485 -0.0101393 0.000423 -0.781833 0.074404 -0.349506 2650 
1750 1 -0.011512 0.001274 -0.01018 4.2e-05 0 -0.011753 0 2650 
1160 1 -0.010117 0.00149 -0.010115 0.000116 0 -0.011753 0 2650 
3264 1 -0.003542 0.001461 -0.010108 0.000116 0 -0.011753 0 2650 
1562 1 -0.002141 0.001032 -0.010154 0.000423 0 -0.011753 0 2650 
2164 1 -0.012835 0.001897 -0.009898 0.000116 0 -0.011753 0 2650 
1717 1 -0.00606363 0.00215818 -0.00971341 0.000116 -1.26955 0.503155 -0.17149 2650 
800 1 -0.00114 0.001751 -0.009738 0.000423 0 -0.011753 0 2650 
3832 1 -0.01255 0.002879 -0.009616 4.2e-05 0 -0.011753 0 2650 
2975 1 -0.011752 0.00251 -0.009985 0.000656 0 -0.011753 0 2650 
4374 1 -0.008921 0.002645 -0.009568 4.2e-05 0 -0.011753 0 2650 
3250 1 -0.008233 0.002618 -0.010036 0.000116 0 -0.011753 0 2650 
2436 1 -0.004327 0.00299 -0.009757 0.000423 0 -0.011753 0 2650 
3135 1 -0.00038 0.002427 -0.010152 0.000116 0 -0.011753 0 2650 
1977 1 -0.006037 0.003888 -0.009842 4.2e-05 0 -0.011753 0 2650 
3324 1 -0.011243 0.004131 -0.009993 0.000423 0 -0.011753 0 2650 
3031 1 -0.011934 0.005388 -0.00971 0.000116 0 -0.011753 0 2650 
364 1 -0.008943 0.004848 -0.009746 0.000423 0 -0.011753 0 2650 
2474 1 -0.001928 0.005232 -0.009724 0.000423 0 -0.011753 0 2650 
3790 1 -0.012918 0.005819 -0.010098 0.000116 0 -0.011753 0 2650 
3116 1 -0.01058 0.005889 -0.009568 0.000423 0 -0.011753 0 2650 
4256 1 -0.007946 0.006582 -0.010197 0.000116 0 -0.011753 0 2650 
3364 1 -0.006241 0.006681 -0.010015 0.000116 0 -0.011753 0 2650 
958 1 -0.001223 0.006387 -0.009713 0.000116 0 -0.011753 0 2650 
1310 1 -0.011355 0.007941 -0.010263 4.2e-05 0 -0.011753 0 2650 
3071 1 -0.009089 0.008746 -0.009836 4.2e-05 0 -0.011753 0 2650 
3967 1 -0.007915 0.010218 -0.009637 0.000423 0 -0.011753 0 2650 
2581 1 -0.004751 0.009743 -0.01 0.000423 0 -0.011753 0 2650 
3784 1 -0.00735 0.010481 -0.00989 0.000116 0 -0.011753 0 2650 
2344 1 -0.001557 0.010644 -0.009839 0.000423 0 -0.011753 0 2650 
3361 1 -5.4e-05 0.010893 -0.010103 0.000116 0 -0.011753 0 2650 
301 1 -0.005514 0.011782 -0.009906 0.000116 0 -0.011753 0 2650 
660 1 -0.002925 0.012223 -0.009723 4.2e-05 0 -0.011753 0 2650 
1087 1 -0.005985 0.013035 -0.009545 0.000116 0 -0.011753 0 2650 
2781 1 -0.00296581 0.013308 -0.0100196 0.000423 -0.0117237 -0.0176724 0.00043508 2650 
1827 1 -0.000405 0.012728 -0.009578 0.000116 0 -0.011753 0 2650 
3409 1 -0.008283 -0.002605 -0.009387 0.000656 0 -0.011753 0 2650 
2846 1 -0.006122 -0.002945 -0.009068 4.2e-05 0 -0.011753 0 2650 
2224 1 -0.004317 -0.002609 -0.008931 0.000423 0 -0.011753 0 2650 
1239 1 -0.00324021 -0.00287711 -0.00879222 0.000423 -0.0112942 -0.0224869 -0.0158758 2650 
756 1 -0.007322 -0.001594 -0.009147 0.000116 0 -0.011753 0 2650 
1787 1 -0.012291 -0.001573 -0.008935 0.000423 0 -0.011753 0 2650 
661 1 -0.00799286 -0.00114402 -0.00941617 0.000656 0.0055945 -0.0143672 0.00275546 2650 
3875 1 -0.00448121 -0.00157972 -0.00888584 0.000423 -0.691193 -0.309177 -0.120978 2650 
3393 1 -0.006109 -0.000333999 -0.008736 4.2e-05 0 -0.011753 0 2650 
1690 1 -0.004681 -0.000456999 -0.00917 0.000423 0 -0.011753 0 2650 
159 1 -0.005821 0.000278001 -0.009096 0.000423 0 -0.011753 0 2650 
4013 1 -0.00592609 0.00153515 -0.00898258 0.000116 0.120685 0.326905 -0.117151 2650 
193 1 -0.010056 0.002032 -0.009264 0.000116 0 -0.011753 0 2650 
3935 1 -0.006505 0.002249 -0.009315 0.000116 0 -0.011753 0 2650 
1184 1 -0.011934 0.003073 -0.00927 0.000116 0 -0.011753 0 2650 
3450 1 -0.011877 0.002821 -0.008756 0.000423 0 -0.011753 0 2650 
608 1 -0.01048 0.002591 -0.008875 0.000116 0 -0.011753 0 2650 
2299 1 -0.003792 0.002485 -0.009457 4.2e-05 0 -0.011753 0 2650 
1121 1 -0.002698 0.002703 -0.00928 0.000423 0 -0.011753 0 2650 
799 1 -0.00523057 0.00336194 -0.00874563 0.000423 -0.497246 -0.168124 0.245392 2650 
1381 1 -0.00295241 0.00380002 -0.00892816 0.000116 0.0814598 0.325994 -0.167727 2650 
2541 1 -0.006562 0.00433 -0.009245 0.000656 0 -0.011753 0 2650 
1171 1 -0.008755 0.006221 -0.00943 0.000116 0 -0.011753 0 2650 
3558 1 -0.007141 0.005564 -0.00937 0.000423 0 -0.011753 0 2650 
373 1 -0.01088 0.007443 -0.009322 0.000423 0 -0.011753 0 2650 
842 1 -0.010207 0.007746 -0.009055 0.000116 0 -0.011753 0 2650 
1567 1 -0.008425 0.00718 -0.008875 0.000423 0 -0.011753 0 2650 
2633 1 -0.005185 0.007696 -0.009252 4.2e-05 0 -0.011753 0 2650 
1584 1 -0.005051 0.007115 -0.00882 0.000423 0 -0.011753 0 2650 
3984 1 -0.012135 0.008032 -0.009019 0.000423 0 -0.011753 0 2650 
949 1 -0.004033 0.008247 -0.009175 0.000116 0 -0.011753 0 2650 
4077 1 -0.012422 0.009268 -0.00892 0.000423 0 -0.011753 0 2650 
2649 1 -0.00472 0.009155 -0.008709 0.000656 0 -0.011753 0 2650 
368 1 -0.013572 0.009747 -0.008947 0.000423 0 -0.011753 0 2650 
595 1 -0.009604 0.009936 -0.009278 0.000423 0 -0.011753 0 2650 
3199 1 -0.0036299 0.010128 -0.00898938 0.000423 0.0700435 -0.0850054 0.123328 2650 
3042 1 -0.012085 0.011023 -0.009039 0.000116 0 -0.011753 0 2650 
2678 1 -0.01021 0.011022 -0.009104 0.000423 0 -0.011753 0 2650 
4368 1 -0.004474 0.010328 -0.008808 0.000116 0 -0.011753 0 2650 
1021 1 -0.012788 0.012582 -0.008833 0.000423 0 -0.011753 0 2650 
796 1 -0.00925 0.012548 -0.009199 0.000423 0 -0.011753 0 2650 
2094 1 -0.006452 0.011916 -0.009074 0.000656 0 -0.011753 0 2650 
4179 1 -0.004782 0.012083 -0.009033 0.000423 0 -0.011753 0 2650 
1859 1 -0.011231 0.013395 -0.009139 4.2e-05 0 -0.011753 0 2650 
232 1 -0.010455 0.013387 -0.008807 0.000656 0 -0.011753 0 2650 
449 1 -0.002169 0.012805 -0.008811 0.000656 0 -0.011753 0 2650 
473 1 -0.006405 0.013736 -0.009211 0.000423 0 -0.011753 0 2650 
1521 1 -0.005494 0.013729 -0.009109 0.000116 0 -0.011753 0 2650 
947 1 -0.013531 -0.003151 -0.00802 0.000116 0 -0.011753 0 2650 
1774 1 -0.001246 -0.002601 -0.00814 0.000423 0 -0.011753 0 2650 
2545 1 -0.012942 -0.002161 -0.007898 0.000423 0 -0.011753 0 2650 
4306 1 -0.009054 -0.001854 -0.00862 0.000423 0 -0.011753 0 2650 
3204 1 -0.007034 -0.002051 -0.008517 0.000423 0 -0.011753 0 2650 
1169 1 -0.007648 -0.001283 -0.008568 0.000116 0 -0.011753 0 2650 
2273 1 -0.013708 -0.000724999 -0.008112 0.000116 0 -0.011753 0 2650 
1585 1 -0.0062192 -0.000143651 -0.00798076 0.000423 0.010381 -0.0400197 0.0375208 2650 
3283 1 -0.006893 0.000122001 -0.007981 4.2e-05 0 -0.011753 0 2650 
3482 1 -0.00292688 0.000487392 -0.00804634 0.000116 0.00225549 -0.234656 -0.0429905 2650 
3599 1 -0.002399 0.001308 -0.008331 0.000116 0 -0.011753 0 2650 
786 1 -0.000492 0.001123 -0.008029 0.000423 0 -0.011753 0 2650 
2578 1 -0.00457029 0.00167083 -0.00823413 0.000423 -1.21343 -0.117639 0.11418 2650 
3219 1 -0.00186109 0.0028113 -0.00858933 0.000423 0.157702 -0.0561135 -0.0658825 2650 
4275 1 -0.012816 0.003934 -0.008558 0.000656 0 -0.011753 0 2650 
932 1 -0.010541 0.003261 -0.008145 0.000423 0 -0.011753 0 2650 
3980 1 -0.00227298 0.00365638 -0.00793697 0.000423 0.455548 0.492159 0.231256 2650 
2285 1 -0.009362 0.004459 -0.008376 0.000116 0 -0.011753 0 2650 
3011 1 -0.002993 0.004372 -0.008536 0.000423 0 -0.011753 0 2650 
3477 1 -0.012713 0.005075 -0.008303 0.000116 0 -0.011753 0 2650 
2385 1 -0.007736 0.005283 -0.008312 0.000116 0 -0.011753 0 2650 
503 1 -0.004804 0.004824 -0.007904 0.000116 0 -0.011753 0 2650 
1272 1 -0.002915 0.004851 -0.008051 0.000116 0 -0.011753 0 2650 
3221 1 -0.002059 0.005475 -0.008621 0.000423 0 -0.011753 0 2650 
675 1 -0.000747684 0.00526572 -0.00858919 0.000423 0.000674225 0.00272039 -0.00383892 2650 
3943 1 -0.014244 0.006025 -0.008682 4.2e-05 0 -0.011753 0 2650 
1237 1 -0.008774 0.005835 -0.008534 0.000423 0 -0.011753 0 2650 
3677 1 -0.003242 0.006311 -0.008032 0.000116 0 -0.011753 0 2650 
2604 1 -0.008994 0.006369 -0.008289 0.000116 0 -0.011753 0 2650 
1778 1 -0.003895 0.006366 -0.008346 0.000423 0 -0.011753 0 2650 
207 1 -0.002941 0.006825 -0.008481 0.000116 0 -0.011753 0 2650 
1251 1 -0.01357 0.007679 -0.008038 0.000423 0 -0.011753 0 2650 
246 1 -0.00548791 0.00747671 -0.00813638 0.000423 0.183897 0.079474 0.0991935 2650 
2789 1 -0.00401 0.007845 -0.008376 0.000423 0 -0.011753 0 2650 
4357 1 -0.014797 0.008075 -0.007983 0.000116 0 -0.011753 0 2650 
429 1 -0.002263 0.008183 -0.008493 0.000116 0 -0.011753 0 2650 
858 1 -8.4e-05 0.008333 -0.008551 0.000116 0 -0.011753 0 2650 
2511 1 -0.011901 0.009383 -0.008233 0.000116 0 -0.011753 0 2650 
3686 1 -0.011435 0.008819 -0.008531 0.000116 0 -0.011753 0 2650 
1277 1 -0.011755 0.008901 -0.008044 0.000116 0 -0.011753 0 2650 
2960 1 -0.012777 0.010084 -0.00837 4.2e-05 0 -0.011753 0 2650 
2461 1 -0.011199 0.009972 -0.008314 0.000423 0 -0.011753 0 2650 
3816 1 -0.005302 0.010115 -0.008058 0.000116 0 -0.011753 0 2650 