ITEM: TIMESTEP
7256256
ITEM: NUMBER OF ATOMS
4337
ITEM: BOX BOUNDS ff ff ff
-0.15 0.15
-0.15 0.06
-0.15 0.15
ITEM: ATOMS id type x y z radius vx vy vz density 
2527 1 -0.00814381 -0.0620716 -0.0683335 4.2e-05 3.62246 0.272678 -0.723471 2650 
3918 1 -0.0128938 -0.059971 -0.0676666 0.000116 4.39125 0.415221 -0.836746 2650 
4366 1 -0.0118594 -0.0535289 -0.0678555 0.000116 -0.963029 0.788827 0.168313 2650 
2765 1 -0.0115822 -0.047802 -0.0675929 0.000423 -2.06813 0.363531 0.35438 2650 
833 1 -0.0192909 -0.0498036 -0.0661278 0.000116 3.24532 1.09909 -0.946726 2650 
3387 1 -0.0262542 -0.0582115 -0.0636616 0.000116 0.165105 1.08726 -0.730375 2650 
632 1 -0.0263476 -0.0570795 -0.0636461 0.000116 -3.12145 -0.20595 1.29219 2650 
259 1 -0.0271063 -0.0623253 -0.0629937 0.000423 -0.898051 0.0127066 0.263083 2650 
1081 1 -0.0309935 -0.0534532 -0.0615177 0.000116 6.98847 0.845431 -3.52089 2650 
239 1 -0.0335363 -0.051977 -0.0598186 0.000423 -2.19579 -0.414001 1.23103 2650 
19 1 -0.0367179 -0.0593579 -0.0579202 0.000423 0.802974 -0.16174 -0.509037 2650 
897 1 -0.0382956 -0.047655 -0.0568893 0.000423 -1.45186 0.36797 0.977335 2650 
868 1 -0.0427042 -0.059661 -0.0540497 0.000116 0.457763 -0.108818 -0.361674 2650 
814 1 -0.0422304 -0.0450543 -0.0540328 0.000423 -1.31246 0.549301 1.02415 2650 
3974 1 -0.0430913 -0.0584458 -0.0533487 0.000423 0.523942 0.0628835 -0.423203 2650 
1471 1 -0.043152 -0.0467386 -0.0532997 0.000423 -0.493223 -0.354289 0.399319 2650 
486 1 -0.0428299 -0.0455568 -0.0535589 0.000423 -1.14424 -0.363626 0.916719 2650 
1231 1 -0.0487269 -0.0457926 -0.0482559 0.000423 -0.790661 -0.0283524 0.798378 2650 
4373 1 -0.0493284 -0.0607887 -0.0478219 4.2e-05 -1.65084 0.50435 -2.63957 2650 
4139 1 -0.049591 -0.0460816 -0.0478096 0.000116 -1.42738 0.699756 1.48057 2650 
2515 1 -0.0498126 -0.0473363 -0.0470771 0.000116 -1.98034 -1.28559 1.07314 2650 
3090 1 -0.0513273 -0.0582453 -0.0454803 0.000423 -0.990908 -1.28839 1.1183 2650 
2451 1 -0.0512663 -0.0502792 -0.0455491 0.000423 -2.43152 -0.658838 2.73672 2650 
1326 1 -0.052182 -0.0527028 -0.0441389 0.000656 -1.70694 0.0119333 2.01798 2650 
2167 1 -0.0531367 -0.0509133 -0.043835 0.000116 -0.0215615 -0.465441 0.0261368 2650 
3005 1 -0.0551586 -0.0619001 -0.0407492 0.000423 -0.746165 0.2014 0.977072 2650 
2920 1 -0.0581681 -0.0599007 -0.0368986 0.000116 7.14886 0.300581 -11.2697 2650 
4036 1 -0.0578814 -0.0609603 -0.0360037 0.000116 0.0388138 2.03039 -0.426494 2650 
3375 1 -0.0586967 -0.0455828 -0.0360517 0.000116 3.50206 0.428604 -5.7018 2650 
3547 1 -0.0586617 -0.0611882 -0.0355212 0.000423 -0.291366 0.321054 0.481178 2650 
2 1 -0.0608379 -0.0529821 -0.0311442 0.000656 -1.25251 0.128583 2.44668 2650 
1805 1 -0.0611911 -0.0496712 -0.0309613 0.000423 -0.699704 0.265547 1.38288 2650 
1312 1 -0.06443 -0.053311 -0.024576 4.2e-05 -1.37207 2.71079 3.59711 2650 
2803 1 -0.0662978 -0.0482045 -0.0186981 0.000116 0.912403 2.71464 -3.2351 2650 
2210 1 -0.0674999 -0.0540296 -0.0107226 0.000656 -0.467268 -0.420379 2.94151 2650 
1256 1 -0.0682459 -0.050777 -0.0067419 0.000423 -0.203118 -0.422335 2.0561 2650 
3034 1 -0.0684321 -0.0620934 0.00377444 0.000116 0.711451 -0.0722707 -10.8129 2650 
3088 1 -0.0683741 -0.0595854 0.00528518 0.000423 0.217803 0.091992 2.81771 2650 
935 1 -0.0678907 -0.0593538 0.00968517 0.000423 0.228392 -0.438362 1.60097 2650 
843 1 -0.0681077 -0.0452351 0.0103133 0.000116 0.0482413 -0.0693704 0.31858 2650 
1721 1 -0.0667883 -0.0529097 0.0168627 0.000116 -0.109208 -0.390199 -0.432542 2650 
1912 1 -0.0654144 -0.0495801 0.020589 0.000423 0.5264 -0.0469938 1.67245 2650 
2634 1 -0.064857 -0.0451224 0.0234261 4.2e-05 1.32917 -5.64136 3.67991 2650 
295 1 -0.0593137 -0.0615099 0.029605 0.000116 -0.185236 0.281223 -8.14417 2650 
167 1 -0.0614437 -0.0514459 0.0311399 0.000116 -0.27419 0.308091 -0.541017 2650 
3785 1 -0.061056 -0.0577776 0.0318934 0.000116 0.496246 -0.420071 0.950003 2650 
2087 1 -0.061023 -0.047337 0.0321155 4.2e-05 1.58328 0.424324 3.00841 2650 
1833 1 -0.0605555 -0.0470564 0.0328337 0.000116 0.804155 -1.53042 1.48311 2650 
3933 1 -0.0603569 -0.0572206 0.0331974 0.000116 0.420078 0.20379 0.763753 2650 
753 1 -0.0565707 -0.0530158 0.0393037 0.000116 0.60851 -0.864454 0.875841 2650 
1320 1 -0.0462257 -0.0520037 0.0446567 4.2e-05 1.79465 -11.3017 1.11985 2650 
3038 1 -0.0514358 -0.0589226 0.045819 0.000116 -0.7069 0.240756 -0.793557 2650 
3308 1 -0.0485278 -0.0486762 0.0484563 0.000423 1.81318 0.575446 1.81585 2650 
816 1 -0.0438248 -0.0548281 0.0527481 0.000423 -4.33353 0.243515 -3.60043 2650 
4026 1 -0.0257144 -0.0596433 0.0639048 0.000116 -17.7135 0.0993601 -7.12762 2650 
1239 1 -0.0201604 -0.0623315 0.0655495 0.000423 -5.00756 0.0370037 -1.63707 2650 
3134 1 -0.0202611 -0.057901 0.065837 0.000116 -3.03403 0.460047 -0.933713 2650 
2813 1 -0.0157637 -0.0577333 0.066018 0.000116 1.88192 6.99223 -0.645913 2650 
3810 1 -0.0183287 -0.0589162 0.0664009 0.000116 -4.95838 -0.0946569 -1.36867 2650 
2947 1 -0.00245903 -0.00838627 -0.0688402 0.000116 -3.11809 -0.0364508 0.11138 2650 
3817 1 -0.00464331 -0.00607929 -0.0687275 0.000116 -3.19532 0.140295 0.215879 2650 
3602 1 -0.00670301 -0.0197229 -0.0685572 0.000116 -2.15578 -0.390608 0.210776 2650 
2053 1 -0.0100642 -0.00227239 -0.068145 0.000116 -1.97661 0.277557 0.291921 2650 
2829 1 -0.0143414 -0.0183583 -0.0673747 0.000116 -2.33468 -0.297199 0.496962 2650 
2900 1 -0.0133384 -0.0168155 -0.0672684 0.000423 -3.14588 -0.262118 0.623784 2650 
2086 1 -0.014189 -0.0132026 -0.0674825 4.2e-05 -3.12899 -0.190666 0.657909 2650 
1208 1 -0.0147333 -0.00388001 -0.0673657 4.2e-05 1.20257 -0.98114 -0.263008 2650 
3366 1 -0.0157739 -0.0367014 -0.0670538 0.000116 1.09779 0.031625 -0.258246 2650 
502 1 -0.00618725 -0.0207672 -0.0670841 0.000116 1.8714 -0.160542 -0.312497 2650 
2898 1 -0.015034 -0.0194404 -0.0669099 0.000423 -3.01422 -0.200852 0.677265 2650 
3615 1 -0.0175701 -0.0148288 -0.0666821 4.2e-05 -2.97834 -0.0730754 0.784765 2650 
4260 1 -0.0184977 -0.0138604 -0.066354 0.000116 -3.07871 -0.203344 0.858262 2650 
1655 1 -0.0167467 -0.0421537 -0.0662689 0.000656 3.17786 -0.188536 -0.740438 2650 
3692 1 -0.0205944 -0.0389611 -0.0657335 0.000116 5.02508 0.477579 -1.57436 2650 
322 1 -0.0197376 -0.0112159 -0.0660729 4.2e-05 -3.06811 -0.201595 0.916521 2650 
2048 1 -0.0191945 -0.00924915 -0.0661558 0.000116 -3.08199 0.195023 0.894214 2650 
3989 1 -0.0183863 -0.00370702 -0.0660673 0.000423 -2.19826 0.0448195 0.611769 2650 
3018 1 -0.0177514 -0.00107437 -0.0662408 0.000423 -2.82034 0.277947 0.755805 2650 
2685 1 -0.0214541 -0.0352603 -0.0651358 0.000423 -1.70009 0.501072 0.559968 2650 
3622 1 -0.020201 -0.029352 -0.0652926 0.000656 -1.9048 0.556613 0.58933 2650 
2343 1 -0.0203985 -0.0281527 -0.0654741 0.000423 -2.13161 -0.00821952 0.664105 2650 
3066 1 -0.0254164 -0.0219223 -0.0641032 4.2e-05 3.05676 -2.85884 -1.21198 2650 
2681 1 -0.0245553 -0.012424 -0.0640312 0.000423 -2.95342 0.0692955 1.1326 2650 
1838 1 -0.0267076 -0.0242955 -0.0634959 0.000116 -0.475896 -0.782134 0.200171 2650 
4293 1 -0.0257058 -0.0184556 -0.063578 0.000423 -1.39836 0.398825 0.565384 2650 
1408 1 -0.0266434 -0.00964543 -0.0635229 0.000116 -2.81565 0.00396262 1.18097 2650 
410 1 -0.0265196 -0.00904138 -0.0635746 0.000116 -1.85924 -0.289377 0.775565 2650 
4132 1 -0.0276893 -0.0447251 -0.0630739 0.000116 0.671914 -0.380389 -0.294969 2650 
394 1 -0.0292358 -0.0282155 -0.0623722 0.000116 -2.38869 -0.392552 1.11966 2650 
1424 1 -0.021925 -0.00543387 -0.0631409 4.2e-05 -3.4056 -0.177912 -9.82598 2650 
2858 1 -0.0287423 -0.0208968 -0.0620088 0.000656 -2.30529 0.302377 1.06867 2650 
1832 1 -0.029462 -0.000921519 -0.0622657 0.000116 -1.07969 -0.0780299 0.510874 2650 
2148 1 -0.0319567 -0.00401511 -0.0610229 0.000116 3.52482 0.657293 -1.84513 2650 
1964 1 -0.0320549 -0.00262804 -0.0609714 0.000116 2.96598 2.72362 -1.55933 2650 
198 1 -0.0333901 -0.00854828 -0.0602505 0.000116 -2.54676 0.554289 1.41139 2650 
3782 1 -0.0335028 -0.0175344 -0.0598374 0.000423 -2.79931 -0.192771 1.56733 2650 
3926 1 -0.034514 -0.0102413 -0.0596138 0.000116 -2.09257 -0.302529 1.21151 2650 
415 1 -0.0345634 -0.00627593 -0.0595852 0.000116 -2.83843 -0.117553 1.64648 2650 
164 1 -0.0349208 -0.0387782 -0.0590211 0.000423 -1.94934 -0.149473 1.15336 2650 
2064 1 -0.0353765 -0.0175697 -0.059106 0.000116 -2.66717 -0.118946 1.59637 2650 
2821 1 -0.0362196 -0.014607 -0.0585932 0.000116 -2.49507 -0.191968 1.54234 2650 
1878 1 -0.0342682 -0.0118054 -0.0591346 0.000656 -2.05974 0.334255 1.19361 2650 
4309 1 -0.035771 -0.00900634 -0.0585097 0.000423 -1.86548 0.424341 1.1405 2650 
917 1 -0.0365027 -0.022239 -0.0580561 0.000423 -2.14341 0.030625 1.34766 2650 
1323 1 -0.0355218 -0.0211164 -0.0583901 0.000656 -1.08957 0.0564883 0.662844 2650 
3153 1 -0.0371336 -0.00570462 -0.0580182 0.000116 -2.70457 -0.133569 1.73102 2650 
2738 1 -0.037271 -0.000394418 -0.0580179 4.2e-05 -1.23803 -0.431802 0.795316 2650 
3708 1 -0.0366676 -0.000255439 -0.0583139 0.000116 -0.749295 0.0322712 0.471154 2650 
2396 1 -0.0375696 -0.0205011 -0.0572709 0.000116 0.401632 -0.123389 -2.60453 2650 
107 1 -0.0127356 -0.0185873 -0.0572978 4.2e-05 12.8532 1.53953 1.06522 2650 
4095 1 -0.038054 -0.00450135 -0.0570513 0.000423 -2.19956 0.194976 1.46714 2650 
335 1 -0.0385254 -0.0245738 -0.0564535 0.000656 -2.17031 -0.105426 1.48108 2650 
3329 1 -0.0393851 -0.0239826 -0.0561406 0.000423 -2.13137 -0.0356434 1.49525 2650 
1335 1 -0.0383949 -0.0226855 -0.0568224 0.000423 -2.18893 0.0140225 1.47906 2650 
3378 1 -0.0391035 -0.0219522 -0.0562741 0.000116 -1.72967 -0.636442 -0.668775 2650 
3198 1 -0.0398853 -0.0435814 -0.0557863 0.000423 -1.09051 0.0462116 0.779678 2650 
733 1 -0.0415572 -0.043142 -0.0549366 0.000116 9.69531 -5.24822 -7.3341 2650 
1958 1 -0.0419095 -0.0304254 -0.0546682 0.000116 -2.08647 0.546441 1.59952 2650 
1227 1 -0.0412741 -0.0224576 -0.0547667 0.000423 -1.93689 -0.141523 1.45971 2650 
3260 1 -0.0427759 -0.00751332 -0.053993 0.000116 -1.50689 -0.675861 1.19383 2650 
3229 1 -0.0432808 -0.0201559 -0.0531317 0.000423 -1.59039 0.278595 1.02325 2650 
1544 1 -0.0432464 -0.0163882 -0.052924 0.000656 -1.44309 0.0752342 1.17921 2650 
3261 1 -0.0439497 -0.0154446 -0.0530419 0.000116 -0.291274 0.804521 0.241345 2650 
1995 1 -0.0432591 -0.0128072 -0.0532128 0.000423 -2.49052 -0.217218 2.02466 2650 
2612 1 -0.0444781 -0.0340596 -0.0525996 0.000116 -2.00035 0.14625 1.69149 2650 
2060 1 -0.0449122 -0.0166859 -0.0522294 0.000116 -0.736212 -0.202522 0.633071 2650 
4264 1 -0.0393127 -5.94764e-05 -0.052676 4.2e-05 8.49956 -0.139259 2.53615 2650 
2480 1 -0.0455042 -0.0388224 -0.0517145 0.000116 -1.82777 -1.05095 1.60827 2650 
2169 1 -0.045156 -0.0380902 -0.0520188 0.000116 -0.825213 -0.551472 0.716343 2650 
3863 1 -0.0451569 -0.0226797 -0.051612 0.000423 -1.76343 -0.146765 1.54287 2650 
121 1 -0.0443866 -0.0204995 -0.0519709 0.000656 -1.70423 0.296235 1.41061 2650 
3139 1 -0.0451067 -0.00767695 -0.0520616 0.000116 -2.44324 -0.154363 2.11684 2650 
3505 1 -0.0438966 -0.00444127 -0.0515754 4.2e-05 -3.9352 -0.0961495 -0.116793 2650 
1468 1 -0.046192 -0.0143124 -0.0506878 0.000423 -2.36414 -0.478617 2.15445 2650 
432 1 -0.0364459 -0.0417923 -0.0498217 4.2e-05 10.9552 0.180749 -0.26834 2650 
827 1 -0.0470264 -0.0078342 -0.0503343 0.000116 -1.22848 0.300149 1.14774 2650 
4016 1 -0.0475598 -0.0412774 -0.0482064 0.000116 0.0102843 -0.427247 0.259637 2650 
1058 1 -0.0493814 -0.0391296 -0.0480261 0.000116 -1.32952 -0.33511 1.36704 2650 
3525 1 -0.0493935 -0.000931617 -0.0475735 0.000423 -2.15202 -0.087473 2.23435 2650 
1214 1 -0.0495903 -0.00752079 -0.0470321 0.000656 -1.9628 0.0283935 2.06956 2650 
2967 1 -0.050409 -0.00521293 -0.0461535 0.000656 -1.9148 0.39088 2.09135 2650 
1177 1 -0.0519596 -0.00450448 -0.0452241 0.000116 -2.18016 0.306159 2.50486 2650 
1901 1 -0.0511141 -0.00394247 -0.0457198 0.000423 -2.15991 0.426997 2.41475 2650 
2487 1 -0.0527611 -0.0224359 -0.0442865 0.000116 -1.70053 -0.401583 2.02594 2650 
334 1 -0.0519688 -0.021925 -0.0443898 0.000656 -1.59235 -0.358824 1.86422 2650 
1290 1 -0.0532319 -0.0176923 -0.0437195 0.000116 -2.09975 -0.176234 2.5566 2650 
3470 1 -0.0530538 -0.0168094 -0.0439354 0.000116 -1.92199 -0.24563 2.32088 2650 
4038 1 -0.0532459 -0.0143333 -0.0437024 0.000116 -1.92379 -0.174109 2.3439 2650 
3642 1 -0.0536096 -0.0339617 -0.0427664 0.000423 -1.43924 0.0672469 1.80416 2650 
3313 1 -0.0536457 -0.00502602 -0.042721 0.000423 -1.07764 0.397574 1.35322 2650 
1956 1 -0.0538617 -0.00405402 -0.0429412 0.000116 -2.11424 -0.514001 2.65191 2650 
2895 1 -0.0531359 -0.00129666 -0.0433535 0.000423 -2.13718 -0.0989211 2.61941 2650 
3385 1 -0.0542202 -0.0142423 -0.0424875 0.000116 0.0648342 0.32496 -0.0827378 2650 
1555 1 -0.0537392 -0.0103322 -0.0426034 0.000423 -1.44137 0.366611 1.81812 2650 
2820 1 -0.0541247 -0.00034905 -0.0426091 0.000116 -1.57473 0.577701 2.00032 2650 
4312 1 -0.055141 -0.0122575 -0.0407728 0.000423 -2.26361 0.0689563 3.0613 2650 
3055 1 -0.0555586 -0.00878891 -0.0407217 0.000116 -1.68555 -0.0234496 2.29968 2650 
835 1 -0.0541438 -0.0174908 -0.0399547 0.000116 4.97136 1.95472 -10.4019 2650 
2817 1 -0.00391593 -0.0042598 -0.0395241 0.000116 -0.57066 -0.122213 -5.7939 2650 
2928 1 -0.0565197 -0.0414986 -0.0393772 0.000116 7.1606 3.06735 -10.2779 2650 
3688 1 -0.0574495 -0.0404229 -0.0380076 0.000116 -1.19127 -0.230309 1.80064 2650 
1841 1 -0.0571546 -0.00899335 -0.0384496 0.000116 -1.6902 0.191601 2.51246 2650 
1960 1 -0.0575349 -0.00160594 -0.0378782 0.000116 -0.638898 0.129953 0.970453 2650 
4331 1 -0.0581032 -0.014639 -0.0370005 0.000116 -0.944394 0.504452 1.48302 2650 
51 1 -0.0583047 -0.0336613 -0.0361041 0.000423 -0.318471 -0.428374 0.514301 2650 
2251 1 -0.0591049 -0.037342 -0.0347789 0.000423 -1.32899 -0.0430894 2.25856 2650 
1016 1 -0.0590306 -0.0306593 -0.0349047 0.000423 -1.29325 0.111328 2.18714 2650 
2670 1 -0.058857 -0.0153673 -0.0351966 0.000423 -1.07346 0.248223 1.79507 2650 
2436 1 -0.0589836 -0.00943642 -0.034984 0.000423 -1.1994 0.326911 2.0222 2650 
1877 1 -0.0592355 -0.0293528 -0.0340934 0.000656 -1.25381 0.212435 2.17844 2650 
2806 1 -0.0600808 -0.038211 -0.0336945 0.000116 -1.30959 0.0490251 2.33514 2650 
106 1 -0.0601651 -0.00586121 -0.0336952 4.2e-05 -1.1023 0.919327 1.96823 2650 
3054 1 -0.0600218 -0.000138988 -0.0337995 0.000116 -0.83847 0.328788 1.48897 2650 
27 1 -0.0601776 -0.0336457 -0.0328878 0.000423 -1.23425 0.0748313 2.25841 2650 
2800 1 -0.0602514 -0.00201008 -0.0327523 0.000423 -1.19084 0.483101 2.19067 2650 
2000 1 -0.0605795 -0.00942188 -0.0321415 0.000423 -1.03395 -0.33751 1.94877 2650 
2816 1 -0.0620549 -0.00162482 -0.0299034 0.000116 -0.336545 -0.282433 0.698392 2650 
4082 1 -0.0627508 -0.00969078 -0.027664 0.000423 -1.29343 -0.192053 2.93392 2650 
4128 1 -0.063312 -0.017654 -0.0271406 0.000116 -1.26192 0.120074 2.94373 2650 
122 1 -0.0631993 -0.00927591 -0.0260203 0.000656 -1.00098 0.331706 2.43123 2650 
791 1 -0.0637927 -0.019718 -0.0251683 0.000423 -1.08717 -0.367403 2.75558 2650 
1670 1 -0.0640679 -0.037916 -0.0244593 0.000423 -0.494 0.597348 1.29397 2650 
392 1 -0.0634759 -0.0202238 -0.0242502 0.000116 -0.956899 -0.174206 0.966124 2650 
588 1 -0.0643579 -0.00368061 -0.0236858 0.000423 -0.978564 0.340623 2.6589 2650 
2269 1 -0.0649248 -0.0105609 -0.0230171 0.000116 -1.00421 -0.209257 2.83261 2650 
2788 1 -0.0651373 -0.00124768 -0.0214495 0.000423 -0.880815 -0.0535249 2.67484 2650 
2593 1 -0.0661206 -0.0446475 -0.0193156 0.000116 0.032381 -0.85446 -0.110845 2650 
3168 1 -0.0666537 -0.0168527 -0.0173871 0.000116 -0.58353 -0.0675314 2.23697 2650 
2938 1 -0.0664947 -0.00865823 -0.0179854 0.000116 -0.840119 -0.176259 3.10605 2650 
2976 1 -0.0143962 -0.00471396 -0.0176566 0.000656 -2.23092 -0.136753 -2.74061 2650 
1030 1 -0.0665365 -0.0407762 -0.0166086 0.000423 -0.782428 -1.07008 3.13212 2650 
1116 1 -0.06652 -0.0182041 -0.0166746 0.000423 -0.397255 0.194934 1.58477 2650 
1050 1 -0.0667892 -0.00308248 -0.016859 0.000116 -0.0881449 -0.110864 0.349199 2650 
606 1 -0.000183 0.00262135 -0.016592 0.000116 0 -0.011753 0 2650 
188 1 -0.0013815 0.0108084 -0.01663 0.000116 -0.0148612 0.0228045 0.00418427 2650 
4010 1 -0.0011774 0.0351118 -0.0166562 0.000116 -0.0944465 0.099748 0.0197066 2650 
736 1 -0.00493457 0.000287523 -0.0159066 0.000116 -0.0307431 -0.0170391 0.0144389 2650 
30 1 -0.000614516 0.000231054 -0.0163811 0.000423 -0.0136125 -0.0214967 0.00834717 2650 
1679 1 -0.00375303 0.00314825 -0.0160643 0.000423 -0.00447784 0.0157628 0.0025179 2650 
2013 1 -0.00282531 0.00284883 -0.0160444 0.000423 -0.00154235 0.00221798 0.00156406 2650 
2283 1 -0.00350636 0.00342115 -0.0164801 0.000116 -0.00330227 0.00875004 -0.00898767 2650 
2301 1 -0.004222 0.00439435 -0.016305 4.2e-05 0 -0.011753 0 2650 
3121 1 -0.00186557 0.00512415 -0.0162002 0.000423 0.0292552 0.00121421 5.81941e-05 2650 
978 1 -0.00422557 0.00666181 -0.0162425 0.000116 0.0180122 -0.00353228 -0.00159853 2650 
3934 1 -0.001977 0.00738335 -0.016218 0.000116 0 -0.011753 0 2650 
289 1 -0.00241053 0.0097042 -0.0158264 0.000116 -0.0188061 -0.000940224 -0.0594549 2650 
1620 1 -0.000709753 0.0104078 -0.0158985 0.000116 0.0529387 0.0514306 -0.00503745 2650 
2713 1 -0.00074748 0.0115874 -0.0165433 0.000116 0.00037122 0.035974 0.00535071 2650 
2924 1 -0.00275318 0.0127085 -0.0161353 0.000116 -0.059039 0.0353164 0.00422158 2650 
3644 1 -0.00112255 0.0127183 -0.0163259 0.000423 -0.00432743 0.00711996 -0.0325914 2650 
4231 1 -0.000664274 0.0172742 -0.0158424 0.000116 -0.0134934 0.0153003 0.0304581 2650 
2056 1 -0.00516982 0.0329405 -0.0160078 0.000116 -0.915344 -0.176675 0.37926 2650 
1784 1 -0.0668305 -0.042663 -0.0153829 0.000423 -0.25747 -0.277648 1.11857 2650 
476 1 -0.0668837 -0.0113865 -0.0151499 0.000423 -0.375211 0.676728 1.65648 2650 
800 1 -0.0111682 -0.00727307 -0.0157397 0.000423 -0.952091 -1.08091 -1.22734 2650 
2172 1 -0.00543911 -0.00157429 -0.0153626 0.000116 0.0554355 0.00150652 -0.0523356 2650 
509 1 -0.0071393 1.81321e-05 -0.015011 0.000116 0.0208826 0.00735409 0.00387183 2650 
857 1 -1.45193e-05 0.00106743 -0.0150291 0.000116 -0.0623021 0.0193526 0.00200378 2650 
150 1 -0.00575448 0.00235696 -0.0152013 0.000423 -0.0551283 0.0175519 0.0264808 2650 
3239 1 -0.00461003 0.00162436 -0.0151273 0.000116 -0.0248133 -0.00752354 0.0120924 2650 
3637 1 -0.0042936 0.00279792 -0.0154762 0.000423 -0.0121297 0.0118194 -0.00377228 2650 
2399 1 -0.002418 0.00283535 -0.015541 0.000116 0 -0.011753 0 2650 
1388 1 -0.00274176 0.0053093 -0.0151782 0.000116 -0.039288 0.0021603 0.0169103 2650 
2793 1 -0.00132511 0.00580815 -0.0153556 0.000423 0.0182843 0.0982975 0.0184189 2650 
2438 1 -0.0056945 0.00704824 -0.0151275 0.000423 -0.00364828 0.010897 0.00465106 2650 
1219 1 -4.19026e-05 0.00815467 -0.0153488 0.000656 0.0138985 0.0213446 0.00886424 2650 
3830 1 -0.006879 0.00893535 -0.015411 4.2e-05 0 -0.011753 0 2650 
233 1 -0.00466988 0.00939739 -0.0156909 0.000423 0.0114684 -0.00558491 0.0116559 2650 
86 1 -0.00266933 0.0093919 -0.0150303 0.000116 -0.0196067 0.0126222 0.000798653 2650 
2969 1 -0.00177605 0.00900017 -0.0150932 0.000656 -0.00770999 0.0181957 -4.77754e-05 2650 
3177 1 -0.000767161 0.00876382 -0.0156305 4.2e-05 0.00917698 -0.00185525 -0.00666376 2650 
1483 1 -0.000339552 0.00916261 -0.0156255 0.000423 -0.00193306 0.0155452 -0.00835174 2650 
1617 1 -0.00214714 0.00992851 -0.0156756 0.000116 0.0304013 0.00375314 0.0183235 2650 
938 1 -0.00111152 0.0100302 -0.0154476 0.000116 -0.00972467 -0.0045752 -0.00099221 2650 
371 1 -0.000459008 0.0100446 -0.0155584 0.000423 -0.001438 0.00792253 -0.00823014 2650 
3007 1 -0.00191213 0.0111772 -0.0152001 0.000423 -0.0135196 -0.00505473 -0.0280609 2650 
1173 1 -0.0062705 0.0492739 -0.015505 0.000116 -0.133465 0.347815 0.0527719 2650 
2666 1 -0.00752175 -0.00215642 -0.0145592 0.000423 0.0434652 -0.0093168 0.0067076 2650 
186 1 -0.000834021 -0.00236063 -0.0143691 0.000116 -0.0548922 -0.0357269 0.0179676 2650 
1053 1 -0.007469 -0.00100665 -0.014946 0.000116 0 -0.011753 0 2650 
623 1 -0.00684353 0.000175116 -0.0143426 0.000116 -0.0192086 -0.00896372 0.0230222 2650 
1991 1 -0.0061146 0.000425692 -0.0148409 0.000656 -0.0195897 -0.00213105 0.00864983 2650 
676 1 -0.00370279 0.00208443 -0.0144523 0.000423 -0.0247905 0.00447638 0.0282863 2650 
220 1 -0.00354228 0.00289266 -0.0145338 4.2e-05 0.00197382 0.00663681 0.00671825 2650 
3587 1 -0.00674171 0.00324181 -0.0143567 0.000116 -0.0152422 -0.0151231 -0.00566973 2650 
3365 1 -0.002315 0.00526135 -0.014552 0.000116 0 -0.011753 0 2650 
2918 1 -0.00783701 0.00569695 -0.014394 0.000116 0.0149777 0.0131491 0.0124233 2650 
2313 1 -0.00433766 0.00684944 -0.0146689 0.000656 0.0121795 0.0249345 0.010824 2650 
963 1 -0.00688249 0.00714478 -0.0147429 0.000116 -0.0190241 0.000952492 0.0269479 2650 
2222 1 -0.000686464 0.0077655 -0.0142218 0.000423 -0.00549102 -0.00568171 -0.00117535 2650 
581 1 -0.00563099 0.00821536 -0.0145307 0.000423 -0.000593495 -0.0101803 -0.00423903 2650 
1827 1 -0.00716705 0.00986989 -0.0145707 0.000116 0.0104858 0.011057 0.025833 2650 
1228 1 -0.00155535 0.0103554 -0.0149892 0.000423 -0.0026547 0.0243513 0.000515369 2650 
3669 1 -0.000153706 0.0103376 -0.0148112 0.000423 0.00311727 -0.00583333 -0.00141597 2650 
2643 1 -0.00322034 0.0284231 -0.0144423 0.000656 -0.0823633 0.0688822 0.0201377 2650 
352 1 -0.00423345 0.0386748 -0.0145607 0.000423 0.0736471 -0.159457 0.0441779 2650 
4245 1 -0.00775057 0.047859 -0.0144261 0.000116 -0.108278 0.145073 0.0575558 2650 
694 1 -0.00178411 0.0548986 -0.014631 0.000423 0.0939046 0.181508 -0.117107 2650 
1560 1 -0.0670807 -0.0208685 -0.013954 0.000423 -0.435751 0.323553 1.80326 2650 
3652 1 -0.0671129 -0.0199505 -0.0137654 0.000423 -0.368258 0.444015 1.41837 2650 
2641 1 -0.0669035 -0.010176 -0.0139687 0.000656 -0.515081 0.299856 2.46699 2650 
2827 1 -0.00599264 -0.00220968 -0.0141756 0.000116 -0.0201753 -0.0226203 0.0017234 2650 
269 1 -0.000203355 -0.00197236 -0.0140419 0.000423 -0.0067037 -0.0325502 -0.00931701 2650 
1022 1 -0.00323631 -0.000989826 -0.0139684 0.000423 -0.00789737 0.00635626 0.0363748 2650 
2332 1 -0.00482225 -0.000209891 -0.0139254 0.000423 -0.0114447 -0.00779769 0.00753018 2650 
2922 1 -0.00700887 0.00141642 -0.0141234 0.000116 -0.00925852 -0.000802711 0.00675368 2650 
545 1 -0.00175922 0.00113523 -0.0135021 4.2e-05 0.0164356 0.0574887 0.091312 2650 
2512 1 -0.00868108 0.00347838 -0.0135666 0.000116 0.018779 -0.0192413 0.00230208 2650 
1171 1 -0.00810603 0.00369974 -0.0136542 0.000116 0.0131753 -0.0110464 0.0150896 2650 
1032 1 -0.00698846 0.00352855 -0.0139492 0.000423 0.0299121 -0.00820922 0.0127278 2650 
2913 1 -0.00840975 0.00574539 -0.013536 0.000116 -0.0140945 -0.0228944 -0.00540615 2650 
4227 1 -0.00060764 0.00615122 -0.0138655 0.000116 0.00143204 -0.0228975 -0.0290312 2650 
2322 1 -0.00877223 0.00673311 -0.0134867 0.000656 -0.00551701 -0.0136996 -0.00131915 2650 
1288 1 -0.002467 0.00656435 -0.014044 0.000116 0 -0.011753 0 2650 
1618 1 -0.0096053 0.00787675 -0.0137426 0.000116 -0.0183777 -0.0158905 0.00601569 2650 
3515 1 -0.00766339 0.00740739 -0.0139974 0.000656 -0.00992584 -0.00969715 0.00139059 2650 
1237 1 -0.00940631 0.00857526 -0.0135033 0.000423 0.00185642 0.0116668 0.000957015 2650 
4190 1 -0.00869558 0.008647 -0.0139775 0.000423 0.00475473 0.00488139 -0.00345892 2650 
4257 1 -0.00778953 0.00816987 -0.013903 0.000116 0.000708835 -0.0033452 0.00987879 2650 
1769 1 -0.00705545 0.00863635 -0.0137344 0.000656 -0.0120334 -0.000961407 -0.0081542 2650 
1476 1 -0.00706931 0.00980349 -0.013435 0.000423 -0.00430855 0.00299287 4.96068e-07 2650 
1409 1 -0.00044 0.0103444 -0.013868 0.000116 0 -0.011753 0 2650 
478 1 -0.00701829 0.0151296 -0.0139488 0.000423 0.0184535 0.00116934 0.020279 2650 
222 1 -0.00302055 -0.000974951 -0.0128129 0.000656 -0.0154066 -0.0201332 0.053235 2650 
3551 1 -0.00717504 0.000499075 -0.012757 0.000423 -0.015336 0.00523015 0.00637389 2650 
4126 1 -0.00596887 0.000517974 -0.0130793 0.000116 -0.0261531 0.0084042 0.00402279 2650 
2525 1 -0.004063 0.00079135 -0.013231 4.2e-05 0 -0.011753 0 2650 
2609 1 -0.00886 0.00233135 -0.013248 0.000116 0 -0.011753 0 2650 
3733 1 -0.00754522 0.00190655 -0.01305 0.000656 -0.023221 0.0173181 0.0154659 2650 
3477 1 -0.006226 0.00193382 -0.012747 0.000116 0.0616358 -0.0139442 -0.0219299 2650 
2619 1 -0.005851 0.00160735 -0.012854 0.000116 0 -0.011753 0 2650 
3880 1 -0.010277 0.00252335 -0.012913 0.000423 0 -0.011753 0 2650 
4165 1 -0.00517504 0.00263082 -0.0133678 0.000656 -6.3943e-05 -0.032131 0.00827285 2650 
3917 1 -0.003984 0.00309235 -0.012703 0.000116 0 -0.011753 0 2650 
2059 1 -0.003583 0.00330135 -0.012756 0.000116 0 -0.011753 0 2650 
3316 1 -0.00917673 0.00399568 -0.0126941 0.000423 -0.00544519 -0.0183171 -0.00879554 2650 
1192 1 -0.00592461 0.00448131 -0.0130999 0.000116 -0.0160738 0.0171838 -0.0228619 2650 
2912 1 -0.00553617 0.00546251 -0.0131903 0.000116 0.00196064 0.0151142 0.00117299 2650 
3446 1 -0.00180307 0.0049878 -0.0127993 0.000423 0.014297 -0.016402 -0.00312272 2650 
4078 1 -0.0100966 0.00586565 -0.0127133 0.000423 -0.0247982 -0.000713085 -0.00713512 2650 
3950 1 -0.00711344 0.00599886 -0.0133661 0.000656 0.000588401 -0.011021 0.0254098 2650 
1427 1 -0.002948 0.00563235 -0.013376 4.2e-05 0 -0.011753 0 2650 
2344 1 -0.000659482 0.00621192 -0.0132336 0.000423 0.00575909 -0.0231993 -0.0217047 2650 
445 1 -0.00973341 0.00714071 -0.0126797 0.000656 -0.00772698 -0.00205071 -0.00501702 2650 
3259 1 -0.00892247 0.00718022 -0.012861 0.000116 0.00136236 -0.0113258 0.00321419 2650 
1795 1 -0.00885111 0.00772507 -0.0129011 0.000423 -0.00176937 -0.00611173 0.00255598 2650 
4179 1 -0.00756547 0.00766677 -0.0126321 0.000423 -0.00767678 -0.0221048 -0.00852388 2650 
450 1 -0.00587379 0.00772372 -0.0128636 0.000656 0.0109678 0.0466598 0.00707816 2650 
1250 1 -0.00828791 0.00809833 -0.0134184 0.000423 -0.00886215 -0.00669002 0.000806173 2650 
205 1 -0.000744 0.00834835 -0.01334 0.000116 0 -0.011753 0 2650 
3847 1 -0.00953268 0.00938891 -0.012752 0.000656 0.00223772 0.0142639 -0.00523739 2650 
2483 1 -0.0081522 0.00879183 -0.0129639 0.000116 0.0222317 -0.00887276 -0.000700143 2650 
2453 1 -0.00606041 0.0091425 -0.0126693 0.000423 -0.0010049 -0.00249977 -0.0101278 2650 
2092 1 -0.00516091 0.00904663 -0.0133825 0.000656 -0.0434988 0.00182259 -0.0432859 2650 
2781 1 -0.00586366 0.0100956 -0.0128286 0.000423 -0.00442793 0.0056962 -0.0279247 2650 
1986 1 -0.00258289 0.0104876 -0.0132718 0.000656 0.00762539 0.0149956 0.0116892 2650 
508 1 -0.0109183 0.0113613 -0.0127716 0.000116 -0.0281885 0.0711476 0.0146726 2650 
1775 1 -0.0082318 0.0111307 -0.0130617 0.000423 -7.29146e-05 -0.011186 -0.000346901 2650 
3150 1 -2.66439e-05 0.0111479 -0.012665 0.000116 -0.0182263 -0.0087302 -0.0269448 2650 
949 1 -0.00741693 0.0124187 -0.0130589 0.000116 -0.0176518 0.0277962 -0.00593252 2650 
1802 1 -0.00385639 0.0124381 -0.0126834 0.000423 0.00500259 -0.000364755 -0.0111755 2650 
3632 1 -0.0105938 0.0128207 -0.0126997 0.000423 -0.0152052 0.000760494 0.0188393 2650 
3106 1 -0.00971303 0.0132097 -0.0130903 0.000423 -0.042507 0.0242048 -0.0146805 2650 
959 1 -0.00975922 0.0156804 -0.0127873 0.000116 -0.0124197 0.0522228 0.0447896 2650 
1143 1 -0.000431931 0.0150736 -0.012862 0.000423 0.0070315 0.0110531 -0.00616027 2650 
142 1 -0.00701677 0.0250424 -0.0126975 0.000423 -0.0600809 0.0373384 0.0570253 2650 
1195 1 -0.00977225 0.0256288 -0.0132953 0.000116 0.0557766 0.0782116 -0.0138054 2650 
4097 1 -0.00849011 -0.00256258 -0.0122435 0.000423 0.0222564 -0.0142204 -0.0225559 2650 
1763 1 -0.001143 -0.00252265 -0.012442 0.000656 0 -0.011753 0 2650 
2468 1 -0.00596482 -0.000985686 -0.0121204 0.000423 -0.0504222 0.0211365 0.000191011 2650 
3191 1 -0.00817523 -0.000198721 -0.012616 0.000656 -0.0197381 0.00193499 -0.0014393 2650 
1422 1 -0.003881 -0.00067665 -0.012349 4.2e-05 0 -0.011753 0 2650 
1799 1 -0.0032269 0.000127296 -0.0120544 0.000423 7.10678e-05 -0.0118308 4.63239e-05 2650 
3956 1 -0.00907262 0.00107926 -0.0123276 0.000656 -0.000640959 -0.0104529 -0.000368355 2650 
541 1 -0.00703833 0.00119249 -0.0122213 4.2e-05 -0.0143735 0.00954058 0.00936495 2650 
3389 1 -0.010415 0.00158935 -0.012026 0.000116 0 -0.011753 0 2650 
3201 1 -0.00659791 0.00250151 -0.0118814 0.000423 -0.00608722 0.0216696 0.0089772 2650 
3826 1 -0.00920891 0.00347565 -0.0125505 0.000116 -0.000556987 -0.0170562 0.000917958 2650 
411 1 -0.0108715 0.00419947 -0.0120946 0.000116 -0.00787832 -0.00657823 -8.20909e-05 2650 
3787 1 -0.0065537 0.00423928 -0.01221 0.000116 -0.0024271 -0.00223267 -0.0195234 2650 
708 1 -0.00229874 0.00405776 -0.0122405 0.000423 0.0112279 -0.00894022 0.00239788 2650 
2194 1 -0.00202973 0.00471421 -0.0123521 4.2e-05 0.00491046 0.00111596 0.00228026 2650 
3221 1 -0.00980375 0.00533355 -0.0120841 0.000423 -0.0278004 -0.00220221 -0.00187567 2650 
1261 1 -0.00745707 0.00483402 -0.0125134 0.000423 -0.000156549 -0.00211811 -0.00151993 2650 
1645 1 -0.00679231 0.00541705 -0.0119438 4.2e-05 0.0229874 0.010571 0.00467637 2650 
3322 1 -0.00342773 0.00521911 -0.0122917 0.000423 0.00110678 0.0140263 0.0123959 2650 
3362 1 -0.00264475 0.00496674 -0.0125132 0.000116 0.000350619 -0.00253681 -0.00404217 2650 
763 1 -0.0059624 0.00568325 -0.0119974 4.2e-05 -0.0107376 -0.0192397 -0.014763 2650 
3030 1 -0.001189 0.00574735 -0.012596 0.000116 0 -0.011753 0 2650 
2957 1 -0.000583795 0.00567793 -0.0122723 4.2e-05 0.0205169 0.0248349 -0.000218849 2650 
3364 1 -0.0065674 0.00655979 -0.0119312 0.000116 -0.00179506 0.0163753 -0.0232219 2650 
104 1 -0.00330047 0.00659638 -0.0126192 4.2e-05 -0.00674979 0.0150481 0.0116551 2650 
3702 1 -0.00198628 0.00665043 -0.012068 0.000116 0.051128 0.0233268 -0.0546565 2650 
4318 1 -0.00857396 0.00734363 -0.0121947 0.000423 0.000766946 -0.00630486 0.00294055 2650 
3684 1 -0.0054792 0.0081111 -0.0122578 0.000116 -0.00165402 0.0348415 0.047215 2650 
2630 1 -0.001036 0.00808435 -0.012074 4.2e-05 0 -0.011753 0 2650 
4002 1 -0.000443 0.00790835 -0.01223 0.000116 0 -0.011753 0 2650 
2798 1 -0.00733826 0.00955683 -0.0122585 0.000423 0.0168646 0.022512 -0.0112906 2650 
1423 1 -0.00145 0.00956435 -0.012526 4.2e-05 0 -0.011753 0 2650 