ITEM: TIMESTEP
5085858
ITEM: NUMBER OF ATOMS
4359
ITEM: BOX BOUNDS ff ff ff
-0.15 0.15
-0.15 0.06
-0.15 0.15
ITEM: ATOMS id type x y z radius vx vy vz density 
2855 1 -0.00696042 -0.0546401 -0.0686058 4.2e-05 -1.08382 -3.33642 0.109959 2650 
4139 1 -0.00660072 -0.0537673 -0.0685671 0.000116 -0.778302 -3.11069 0.0749245 2650 
3708 1 -0.0113851 -0.060315 -0.0676309 0.000116 4.03745 0.440176 -0.54501 2650 
2465 1 -0.0127225 -0.0459507 -0.0673876 0.000423 -2.03067 0.161374 0.38338 2650 
169 1 -0.0182593 -0.0573164 -0.06642 0.000116 0.98242 -0.965524 -0.270074 2650 
1417 1 -0.0179103 -0.0527423 -0.066515 0.000116 -2.12872 -0.143612 0.573195 2650 
1591 1 -0.017424 -0.0480619 -0.0663276 0.000423 -2.04225 0.0501611 0.536492 2650 
868 1 -0.0213648 -0.0591687 -0.0654871 0.000116 -2.00165 -1.92415 0.653028 2650 
632 1 -0.0230759 -0.0468895 -0.064904 0.000116 0.428745 0.758068 -0.152436 2650 
734 1 -0.028864 -0.0622799 -0.0625304 0.000116 6.00007 0.199007 -3.22303 2650 
3425 1 -0.050927 -0.0603234 -0.0459281 0.000423 -1.96721 -0.980249 2.18133 2650 
1996 1 -0.0510189 -0.0481346 -0.045826 0.000423 -1.75644 0.24004 1.95548 2650 
4288 1 -0.0482865 -0.062377 -0.0455282 0.000423 9.49728 1.03806e-06 -4.96816 2650 
1961 1 -0.0548075 -0.0589452 -0.0417272 0.000116 1.21434 0.289522 -1.595 2650 
4316 1 -0.0551693 -0.059962 -0.0407345 0.000423 -1.58339 -0.448182 2.14448 2650 
418 1 -0.0572815 -0.0551607 -0.0382604 0.000116 2.87211 -1.13687 -4.29997 2650 
4037 1 -0.0592567 -0.0552264 -0.0351236 0.000116 2.78621 -0.959262 -4.70059 2650 
1781 1 -0.0604723 -0.0482729 -0.0323428 0.000423 -0.935285 0.0750617 1.74873 2650 
1051 1 -0.062933 -0.0599943 -0.0280082 0.000116 -0.695054 -0.4291 1.56175 2650 
669 1 -0.0622439 -0.0476818 -0.0282295 0.000656 -1.2379 0.470976 2.72946 2650 
4150 1 -0.0642155 -0.0560272 -0.0249278 0.000116 0.706882 -1.00887 -1.82097 2650 
2237 1 -0.0654858 -0.0486953 -0.0203607 0.000423 -0.782813 0.636843 2.51775 2650 
19 1 -0.066628 -0.0615616 -0.0162376 0.000423 -0.0929819 -1.0234 0.381529 2650 
2201 1 -0.0664718 -0.0578041 -0.0158964 0.000656 0.0513515 0.742921 -0.214729 2650 
51 1 -0.0667563 -0.0536591 -0.0157016 0.000423 0.423716 1.49374 -1.80148 2650 
1520 1 -0.0679334 -0.0511423 -0.0114053 0.000116 1.13447 -0.0621149 -6.75727 2650 
2833 1 -0.0681232 -0.0532731 -0.0102102 0.000116 0.0828093 1.59899 -0.552511 2650 
2790 1 -0.0680976 -0.0469951 -0.00810384 0.000423 -0.286484 -0.312895 2.40736 2650 
3692 1 -0.0688796 -0.0563472 -0.000786708 0.000116 0.00618413 0.258464 -0.541447 2650 
2557 1 -0.0683332 -0.0467117 0.00578978 0.000423 0.138124 0.0328471 1.63019 2650 
2083 1 -0.0684317 -0.0554692 0.00850346 4.2e-05 0.0839913 0.18735 0.675922 2650 
3331 1 -0.0670594 -0.054967 0.0143525 0.000423 0.6005 -0.0303787 2.80571 2650 
1239 1 -0.0567203 -0.0548547 0.0385455 0.000423 0.844592 -0.191217 1.24283 2650 
2667 1 -0.0537775 -0.0500299 0.042555 0.000423 1.8837 -1.14445 2.38046 2650 
343 1 -0.0524808 -0.0517865 0.0441442 0.000423 1.65223 0.134231 1.96426 2650 
2803 1 -0.0509011 -0.0589203 0.046407 0.000116 -0.13995 1.84133 -0.30927 2650 
3957 1 -0.0500572 -0.0559604 0.0465347 0.000656 1.32475 0.29005 1.42502 2650 
689 1 -0.0495982 -0.0606948 0.04736 0.000423 1.79864 -0.247076 1.88364 2650 
3531 1 -0.0465681 -0.0453828 0.0503425 0.000423 1.51954 -0.583656 1.40562 2650 
2274 1 -0.0466053 -0.0594247 0.0507244 0.000116 -1.32148 -0.842843 -1.21417 2650 
3850 1 -0.0396672 -0.0504927 0.0559416 0.000423 0.814061 0.753045 0.577236 2650 
1383 1 -0.0392064 -0.0497649 0.0566382 0.000116 -1.25584 -1.64422 -0.869325 2650 
2612 1 -0.0380865 -0.058381 0.0573972 0.000116 0.817769 -1.17796 0.542639 2650 
1463 1 -0.0380345 -0.0502478 0.0570643 0.000423 2.02607 -0.25288 1.35042 2650 
747 1 -0.0322128 -0.0625062 0.0576235 0.000116 -3.59412 -0.0040579 -5.34267 2650 
3840 1 -0.032548 -0.0584529 0.0600985 0.000656 2.21137 -0.237035 1.19763 2650 
3946 1 -0.0311106 -0.0479924 0.061538 4.2e-05 -9.29147 3.32327 -4.42067 2650 
1270 1 -0.0280047 -0.0566683 0.0629345 0.000116 -0.607955 -0.53547 -0.270529 2650 
208 1 -0.0253555 -0.0565418 0.0640481 0.000116 -21.8214 0.503828 -8.6387 2650 
893 1 -0.023106 -0.0509451 0.0645683 0.000423 1.42977 -0.187399 0.511648 2650 
4019 1 -0.0253052 -0.046494 0.0640677 0.000116 2.19629 0.120822 0.867484 2650 
1314 1 -0.0219072 -0.0477424 0.0653857 4.2e-05 -5.5873 -1.25878 -1.872 2650 
2162 1 -0.0192051 -0.0616147 0.0656784 0.000116 -6.31525 -0.000378322 -1.40308 2650 
658 1 -0.020739 -0.0490323 0.0657655 4.2e-05 -9.52421 1.80121 -3.00343 2650 
1056 1 -0.0186513 -0.0536676 0.066311 0.000116 -3.79388 -2.0585 -1.06711 2650 
3276 1 -0.0109326 -0.0509169 0.068011 0.000116 -1.4791 0.590877 -0.237761 2650 
3357 1 -0.00664921 -0.0501672 0.0685625 0.000116 3.81666 0.503746 0.370141 2650 
4133 1 -0.0100747 -0.0478024 0.0681434 0.000116 -0.0286275 0.125227 -0.00423247 2650 
4331 1 -0.00478203 -0.0248537 -0.0687179 0.000116 -2.28105 -2.02076 0.158736 2650 
319 1 -0.0013061 -0.0169252 -0.0688717 0.000116 -3.21191 -0.203775 0.0609113 2650 
1655 1 -0.00639741 -0.0445856 -0.0680461 0.000656 -1.44209 0.0340605 0.135579 2650 
821 1 -0.00364021 -0.0353098 -0.0684814 0.000423 -2.72228 0.139641 0.144706 2650 
1002 1 -0.00672799 -0.0313762 -0.0680143 0.000656 -2.99025 -0.363164 0.295794 2650 
3204 1 -0.00873554 -0.0272129 -0.0680194 0.000423 -2.51309 0.106279 0.322749 2650 
152 1 -0.00751542 -0.0259593 -0.068165 0.000423 -2.96043 0.365436 0.326397 2650 
3328 1 -0.00581879 -0.0259919 -0.0683308 0.000423 -2.86866 0.0223819 0.244284 2650 
1587 1 -0.00896743 -0.0206295 -0.0680029 0.000423 -1.66045 -0.169008 0.0738188 2650 
1020 1 -0.0094741 -0.019828 -0.0679138 0.000423 -1.06454 0.305109 0.641697 2650 
3066 1 -0.00712842 -0.01294 -0.0685886 4.2e-05 -1.61543 -0.249395 0.167892 2650 
633 1 -0.00774977 -0.0123109 -0.0684468 0.000116 -3.21044 -0.189125 0.363497 2650 
3875 1 -0.0120767 -0.0328357 -0.0675063 0.000423 -2.46806 0.135158 0.441529 2650 
3391 1 -0.0133611 -0.0189493 -0.0676512 4.2e-05 -3.13932 -0.0288803 0.620013 2650 
3248 1 -0.0151023 -0.00692946 -0.0672082 0.000116 -3.13175 -0.166301 0.703735 2650 
2862 1 -0.0141696 -0.0289803 -0.0668613 0.000656 -2.78814 0.0797944 0.590879 2650 
3831 1 -0.00931257 -0.0244725 -0.0670184 4.2e-05 -5.76954 7.6046 1.4261 2650 
1202 1 -0.0163077 -0.0227165 -0.067002 4.2e-05 -1.75876 0.0960862 0.428065 2650 
1957 1 -0.0157224 -0.0190165 -0.0670659 0.000116 -3.23122 0.0392159 0.757502 2650 
1343 1 -0.0171634 -0.0121126 -0.0663956 0.000423 -3.09632 -0.244786 0.800404 2650 
1598 1 -0.0184208 -0.00323017 -0.0663754 0.000116 -1.16107 -0.163862 0.322226 2650 
2000 1 -0.0180072 -0.0204597 -0.0661644 0.000423 0.936091 -0.0276682 -0.122853 2650 
2605 1 -0.019624 -0.0149312 -0.0660297 0.000116 -3.54946 0.0375134 1.0549 2650 
107 1 -0.0181809 -0.0208341 -0.0650848 4.2e-05 4.9624 -0.253457 -0.439622 2650 
2087 1 -0.0224874 -0.0198928 -0.0651884 4.2e-05 -0.385746 -0.477761 0.133067 2650 
1818 1 -0.0226771 -0.0182763 -0.0650444 0.000116 -3.02461 0.102594 1.0545 2650 
1535 1 -0.0244405 -0.0445184 -0.0644815 4.2e-05 5.89283 0.488213 -2.23357 2650 
3422 1 -0.0235096 -0.0239957 -0.0644224 0.000423 -1.92556 -0.185173 0.702692 2650 
838 1 -0.0236971 -0.00783349 -0.0646798 0.000116 -3.01757 -0.179851 1.10556 2650 
1537 1 -0.025325 -0.00222305 -0.0641393 4.2e-05 -3.67417 0.0731468 1.45072 2650 
3040 1 -0.0238538 -0.000167043 -0.064622 0.000116 -1.86486 -0.858349 0.631479 2650 
1282 1 -0.0264959 -0.0132588 -0.0635845 0.000116 -2.95717 -0.228845 1.23226 2650 
844 1 -0.0279392 -0.0365417 -0.0629637 0.000116 -1.99721 -0.36812 0.886232 2650 
4320 1 -0.0274744 -0.0336428 -0.062834 0.000423 -2.16182 -0.0214964 0.945265 2650 
1363 1 -0.0275757 -0.014317 -0.0627896 0.000423 -2.94349 -0.396863 1.29271 2650 
3964 1 -0.0294482 -0.0285039 -0.0619335 0.000423 -2.26043 -0.0235932 1.07479 2650 
3522 1 -0.0297717 -0.0250423 -0.0617786 0.000423 -1.43063 -0.273887 0.689434 2650 
1647 1 -0.029717 -0.0154597 -0.0622263 4.2e-05 -2.47011 -0.191413 1.17964 2650 
378 1 -0.0314389 -0.00931956 -0.0609471 0.000423 -2.489 0.0452129 1.28392 2650 
2247 1 -0.0326402 -0.0286619 -0.0603123 0.000423 -2.11659 0.0889973 1.14547 2650 
3734 1 -0.032299 -0.0172466 -0.0602328 0.000656 -2.76772 -0.189505 1.48415 2650 
2738 1 -0.0329781 -0.0113358 -0.0605611 4.2e-05 -2.83554 -0.24293 1.54407 2650 
146 1 -0.0333203 -0.0176459 -0.0599393 0.000423 -2.7558 -0.207701 1.53195 2650 
3330 1 -0.0341638 -0.0160013 -0.0594625 0.000423 -2.29528 0.474883 1.31874 2650 
3516 1 -0.0328127 -0.00669239 -0.0599544 0.000656 -2.49264 0.370054 1.36421 2650 
2578 1 -0.0356945 -0.027916 -0.0585564 0.000423 -2.4074 0.29319 1.46749 2650 
2060 1 -0.0358237 -0.0219629 -0.0587214 0.000116 1.95083 -0.273193 -1.79181 2650 
312 1 -0.0359318 -0.00139156 -0.0587702 0.000116 -2.45736 -0.0610474 1.50242 2650 
55 1 -0.0377633 -0.0264556 -0.0572441 0.000423 -1.66437 -0.101809 1.09797 2650 
3974 1 -0.0394267 -0.031054 -0.0561113 0.000423 -1.74882 -0.627316 1.22881 2650 
1856 1 -0.0390405 -0.00172079 -0.0567526 0.000116 4.33285 -0.352621 -2.9806 2650 
1813 1 -0.0398336 -0.0354401 -0.0558232 0.000423 -2.27763 -0.356277 1.62524 2650 
2672 1 -0.0405811 -0.0113394 -0.0552823 0.000423 -2.57649 -0.227611 1.89133 2650 
4177 1 -0.0416327 -0.0348279 -0.0544947 0.000423 -2.16045 -0.338891 1.65054 2650 
4017 1 -0.0415114 -0.00362853 -0.0549711 0.000116 0.118972 -0.202417 -0.0898421 2650 
2920 1 -0.0425835 -0.0285923 -0.0541449 0.000116 -2.45064 -0.25944 1.92736 2650 
1922 1 -0.0442465 -0.0146476 -0.0523947 0.000423 -2.44892 -0.194193 2.06808 2650 
4360 1 -0.0459177 -0.0339932 -0.0513477 0.000116 -2.80353 -0.347977 2.50705 2650 
3426 1 -0.0452354 -0.0297889 -0.0515433 0.000423 -2.28117 -0.604947 2.00113 2650 
4250 1 -0.045686 -0.0289589 -0.0514642 0.000116 -2.02821 2.96034 1.98885 2650 
2386 1 -0.0452144 -0.0169296 -0.0519681 0.000116 -2.41752 -0.16504 2.10335 2650 
482 1 -0.0460213 -0.0264298 -0.0508428 0.000423 -1.40047 0.443399 1.26766 2650 
4021 1 -0.0474818 -0.00392232 -0.0499049 0.000116 -0.207826 0.951216 0.197735 2650 
1619 1 -0.049448 -0.00862841 -0.0479574 0.000116 -1.50904 -0.44368 1.55594 2650 
3337 1 -0.0489869 -0.00717079 -0.0479894 0.000423 -2.2448 -0.160083 2.29131 2650 
4373 1 -0.0501505 -0.00504373 -0.0473301 4.2e-05 -2.21264 -0.0969369 2.34449 2650 
615 1 -0.0503834 -0.0284564 -0.0469277 0.000116 4.11853 -1.90965 -4.83431 2650 
2051 1 -0.0504816 -0.0250681 -0.0468683 0.000116 0.994191 -0.750926 -1.07084 2650 
786 1 -0.0500636 -0.00943315 -0.0468678 0.000423 -2.17656 -0.205629 2.32498 2650 
3024 1 -0.0510004 -0.0199398 -0.04625 0.000116 0.54018 -0.137321 2.1386 2650 
2421 1 -0.0525438 -0.0330402 -0.0437077 0.000656 -1.86849 0.0295458 2.24623 2650 
4303 1 -0.0530892 -0.0263702 -0.0434107 0.000423 -1.23996 -0.0920015 1.51641 2650 
3580 1 -0.0531541 -0.0178049 -0.0436357 0.000116 0.700814 0.794683 -0.442506 2650 
518 1 -0.0514961 -0.00702982 -0.043498 0.000116 -3.8468 -0.218783 0.663303 2650 
1945 1 -0.0540593 -0.00809493 -0.0426921 0.000116 -1.87909 -0.107198 2.37942 2650 
3502 1 -0.00359006 -0.00379908 -0.0430343 4.2e-05 -0.52945 -0.0789622 -6.34655 2650 
2112 1 -0.0541562 -0.0222357 -0.0420721 0.000423 -1.72998 -0.394375 2.22687 2650 
3960 1 -0.0279502 -0.00871286 -0.0423434 0.000423 -4.15787 -0.466133 -6.29609 2650 
3482 1 -0.0554757 -0.00592105 -0.0408347 0.000116 -2.48043 -0.199312 3.36977 2650 
822 1 -0.0564251 -0.0294128 -0.0389765 0.000423 -1.47115 -0.0595512 2.12974 2650 
2256 1 -0.0570781 -0.0441095 -0.0385631 0.000116 -0.387362 -0.0631424 0.573343 2650 
843 1 -0.0578824 -0.04448 -0.0373451 0.000116 -0.533248 -0.197305 0.8265 2650 
1760 1 -0.0584773 -0.00179141 -0.0365461 4.2e-05 -2.51595 0.136957 4.02576 2650 
427 1 -0.0594361 -0.0136972 -0.0348191 0.000116 -0.367619 0.296342 0.627525 2650 
3862 1 -0.0596903 -0.0368276 -0.0337642 0.000423 -1.45349 -0.248422 2.56957 2650 
2873 1 -0.0596595 -0.0337912 -0.0338187 0.000423 -1.35527 -0.112837 2.39084 2650 
3089 1 -0.0596471 -0.0123368 -0.0338406 0.000423 -2.35614 -0.318172 4.15292 2650 
4116 1 -0.0614128 -0.0068324 -0.0312008 0.000116 -1.45467 -0.168654 2.86325 2650 
1712 1 -0.0608963 -0.0199921 -0.0303949 0.000116 -1.28393 -0.0922609 0.726575 2650 
2599 1 -0.0623591 -0.0269806 -0.0292637 0.000116 -0.688924 -0.818913 1.46806 2650 
3443 1 -0.0618786 -0.0257237 -0.0295633 0.000423 -1.09333 -0.191395 2.28843 2650 
2634 1 -0.0622652 -0.010405 -0.0296353 4.2e-05 -1.36841 -0.203088 2.8751 2650 
3904 1 -0.0622563 -0.00679741 -0.0294817 0.000116 -1.37379 -0.163992 2.90102 2650 
2700 1 -0.0626717 -0.0176005 -0.0285882 0.000116 -1.33039 -0.224319 2.91652 2650 
1943 1 -0.0639531 -0.0164849 -0.0254555 0.000116 0.85508 0.709701 -5.91212 2650 
1630 1 -0.0639802 -0.0144764 -0.0255256 0.000116 -1.18906 -0.328861 2.9804 2650 
2875 1 -0.00679271 -0.00522129 -0.0259523 0.000423 -0.825419 -0.278124 -3.20712 2650 
1197 1 -0.0646096 -0.0441268 -0.0238877 0.000116 -1.31505 1.11149 3.55684 2650 
4319 1 -0.0644186 -0.0403999 -0.0235202 0.000423 -0.962823 0.0584708 2.63704 2650 
991 1 -0.0648218 -0.0288487 -0.0216642 0.000656 -0.91055 -0.21378 2.72447 2650 
2327 1 -0.065481 -0.0415931 -0.0203345 0.000423 -1.19362 -0.392929 2.63411 2650 
3431 1 -0.0656121 -0.0286502 -0.0199499 0.000423 -0.805331 0.128172 2.6486 2650 
3656 1 -0.0655902 -0.0244139 -0.0200218 0.000423 -0.725029 -0.286232 2.37515 2650 
3549 1 -0.0654792 -0.0188288 -0.0203819 0.000423 -0.941628 -0.148631 3.02508 2650 
8 1 -0.0655792 -0.0328448 -0.0192505 0.000656 -0.797891 0.207725 2.71812 2650 
955 1 -0.0660643 -0.00712416 -0.0195073 0.000116 -0.911711 -0.182473 3.08765 2650 
2970 1 -0.0658621 -0.0204422 -0.0182587 0.000656 -0.541936 -0.296236 1.98676 2650 
2959 1 -0.0666489 -0.0107918 -0.0176955 4.2e-05 -0.82521 -0.200415 3.10809 2650 
2690 1 -0.0664971 -0.0169029 -0.0167658 0.000423 -0.782868 -0.352504 3.10504 2650 
606 1 -0.000183 0.00344768 -0.016592 0.000116 0 -0.011753 0 2650 
188 1 -0.000312854 0.00781122 -0.0168352 0.000116 -0.0156058 0.0716121 0.00169132 2650 
192 1 -0.000150111 0.00797586 -0.0168052 0.000116 0.0466762 0.0258322 0.0491671 2650 
2713 1 -0.000763 0.0104187 -0.016767 0.000116 0 -0.011753 0 2650 
1410 1 -0.066936 -0.0184936 -0.0162665 0.000116 -0.664776 0.0357829 2.73552 2650 
736 1 -0.003429 0.00137268 -0.016474 0.000116 0 -0.011753 0 2650 
150 1 -0.00253048 0.000918264 -0.0162433 0.000423 -0.00913371 0.00501626 0.00203877 2650 
676 1 -0.0022608 0.00197055 -0.0161854 0.000423 -0.0135783 -0.00452781 0.0177143 2650 
1679 1 -0.00363141 0.00278143 -0.0159167 0.000423 -0.000267589 -0.00703629 -0.00433961 2650 
2013 1 -0.00279192 0.00299353 -0.016162 0.000423 0.00298908 -0.00809762 0.00112683 2650 
3589 1 -0.00487484 0.00398534 -0.0159134 0.000116 0.155503 0.064687 -0.0402711 2650 
2301 1 -0.004222 0.00522068 -0.016305 4.2e-05 0 -0.011753 0 2650 
3121 1 -0.00392898 0.00503473 -0.0159658 0.000423 0.0295457 0.00139416 -0.0105356 2650 
302 1 -0.000731082 0.00598969 -0.0165188 0.000116 0.0171051 0.0203877 0.0103663 2650 
1698 1 -6.39119e-07 0.00574802 -0.016502 0.000423 0.0411176 0.0348153 -1.85855e-05 2650 
1219 1 -0.000983493 0.00647822 -0.0159521 0.000656 0.0133734 0.0239605 0.00857101 2650 
3546 1 -0.00012819 0.00729555 -0.0161433 0.000423 0.025704 0.0149609 0.00360255 2650 
3934 1 -0.001977 0.00820968 -0.016218 0.000116 0 -0.011753 0 2650 
568 1 -0.00428601 0.0158968 -0.0159414 0.000423 0.0646767 0.0324089 0.0265592 2650 
913 1 -0.000693053 0.0221225 -0.0161633 0.000423 -0.0131935 0.0940792 0.0439723 2650 
1357 1 -0.00440583 0.0434986 -0.0158315 0.000423 0.0681058 0.285169 -0.0155587 2650 
2179 1 -0.00445548 0.0493896 -0.0160897 0.000116 -0.88911 -0.485312 0.169117 2650 
3743 1 -0.066754 -0.0243148 -0.0157117 0.000423 -0.585459 -0.31277 2.48742 2650 
1991 1 -0.00472829 0.000576398 -0.0154509 0.000656 -0.0197706 -0.00214867 0.00868857 2650 
2922 1 -0.00617014 0.00184003 -0.015343 0.000116 -0.0492521 -0.0166623 -0.0574868 2650 
3239 1 -0.00270147 0.00163473 -0.0156293 0.000116 -0.00859694 0.0134975 -0.018679 2650 
2399 1 -0.002418 0.00366168 -0.015541 0.000116 0 -0.011753 0 2650 
2283 1 -0.00137813 0.00412195 -0.0150144 0.000116 -0.0318858 -0.01081 -0.0228231 2650 
2313 1 -0.00507361 0.00496703 -0.0153966 0.000656 0.00856952 0.0288131 0.00982472 2650 
2438 1 -0.00575502 0.00674999 -0.0150248 0.000423 0.00192492 -0.00355692 -0.0258764 2650 
978 1 -0.00533223 0.00692824 -0.0153255 0.000116 0.015313 -0.00383775 -0.0151954 2650 
1620 1 -0.00443176 0.00679186 -0.0155444 0.000116 0.0529387 0.0514306 -0.00503745 2650 
2969 1 -0.00125744 0.00745769 -0.0150968 0.000656 -0.00214235 0.0311769 0.000161156 2650 
1483 1 -0.00015545 0.00805081 -0.0151467 0.000423 -0.023592 0.00968138 -0.006304 2650 
86 1 -0.002064 0.00946568 -0.015055 0.000116 0 -0.011753 0 2650 
3177 1 -0.001068 0.00926568 -0.015412 4.2e-05 0 -0.011753 0 2650 
3830 1 -0.006879 0.00976168 -0.015411 4.2e-05 0 -0.011753 0 2650 
1617 1 -0.00428682 0.00951163 -0.015221 0.000116 0.0304875 0.00968505 -0.0492471 2650 
371 1 -0.000476187 0.0101325 -0.0151157 0.000423 0.000724313 -0.00601752 -0.0061741 2650 
938 1 -0.000869 0.0106717 -0.015416 0.000116 0 -0.011753 0 2650 
142 1 -0.00251895 0.0222885 -0.0154138 0.000423 -0.0926872 0.0526713 -0.0970482 2650 
3196 1 -0.00719018 -0.00344467 -0.0148871 0.000423 0.205836 -0.274963 0.204959 2650 
1053 1 -0.007469 -0.000180321 -0.014946 0.000116 0 -0.011753 0 2650 
2827 1 -0.00457416 -0.000619297 -0.0142967 0.000116 -0.0201753 -0.0226203 0.0017234 2650 
623 1 -0.00681653 0.000706644 -0.0146489 0.000116 -0.00477071 -0.00938024 -0.0420845 2650 
2332 1 -0.00401759 0.000338348 -0.0144549 0.000423 -0.0114447 -0.00779769 0.00753018 2650 
2817 1 -0.00206262 7.58432e-05 -0.0145758 0.000116 0.0100645 -0.056664 0.00630574 2650 
222 1 -0.00189431 0.000926744 -0.0149547 0.000656 -0.00713779 -0.040298 -0.0148088 2650 
3637 1 -0.00355718 0.00187893 -0.0148571 0.000423 -0.00927015 0.0142513 -0.0137177 2650 
220 1 -0.003649 0.00272468 -0.014897 4.2e-05 0 -0.011753 0 2650 
234 1 -0.00192577 0.00421045 -0.0142705 0.000423 0.0351287 -0.0167305 0.0264562 2650 
1618 1 -0.0078328 0.00613967 -0.014871 0.000116 -0.0222988 0.059375 0.0201275 2650 
4296 1 -0.00260015 0.00560401 -0.0144674 0.000423 -0.0431702 0.0421068 0.0473826 2650 
3365 1 -0.002315 0.00608768 -0.014552 0.000116 0 -0.011753 0 2650 
4227 1 -0.000119119 0.00738887 -0.0142842 0.000116 -0.00921828 -0.0161692 0.0154311 2650 
4190 1 -0.00809624 0.00856393 -0.0143566 0.000423 -0.009489 7.8582e-05 0.00632979 2650 
508 1 -0.00802397 0.00797787 -0.0147191 0.000116 -0.0609474 0.0130298 0.0475554 2650 
3515 1 -0.0069303 0.00805975 -0.0142405 0.000656 -0.00618896 -0.0090925 0.00826116 2650 
581 1 -0.00558987 0.00893136 -0.0142326 0.000423 -0.000469419 -0.0102297 -0.00424824 2650 
1228 1 -0.00140363 0.0095333 -0.0149974 0.000423 -0.00123313 -0.0118667 -0.000623591 2650 
3669 1 -0.000315081 0.0108491 -0.0145585 0.000423 0.00220454 -0.00743356 -0.00383523 2650 
3216 1 -0.00447355 0.0233906 -0.0149826 0.000423 -0.00544148 0.107266 0.0543995 2650 
2467 1 -0.00192018 0.0282462 -0.0145184 0.000423 0.0301791 0.103437 0.0421276 2650 
992 1 -0.0668704 -0.0368831 -0.0141263 0.000656 -0.469252 -0.270974 2.22133 2650 
710 1 -0.0671398 -0.00978724 -0.0139717 0.000423 -0.651387 -0.215365 3.13019 2650 
800 1 -0.00763807 -0.00207989 -0.0136077 0.000423 0.0734004 0.0256016 0.0971795 2650 
3153 1 -0.000619632 -0.00186311 -0.0135894 0.000116 -0.0842498 -0.0374178 0.0430189 2650 
3733 1 -0.00590861 0.000702837 -0.0141573 0.000656 -0.024164 0.0138988 0.0212093 2650 
3587 1 -0.0058082 0.00418383 -0.0139782 0.000116 0.00461134 0.0023037 -0.00278329 2650 
3322 1 -0.00386087 0.00430551 -0.013479 0.000423 0.0155165 0.0110838 0.0251988 2650 
4165 1 -0.0051671 0.00488968 -0.0139524 0.000656 -0.00035358 -0.0321692 0.0084674 2650 
2596 1 -0.00847303 0.00604605 -0.0136909 0.000116 -0.0442582 -0.0431064 0.0384975 2650 
104 1 -0.00282591 0.00553838 -0.0134387 4.2e-05 -0.00674979 0.0150481 0.0116551 2650 
3950 1 -0.00637051 0.00676743 -0.0140478 0.000656 -0.0401516 -0.0144037 -0.0334096 2650 
1584 1 -0.00126999 0.00664352 -0.0138811 0.000423 -0.00963006 0.0395817 0.04039 2650 
2322 1 -0.00803493 0.00748999 -0.013685 0.000656 -0.0108707 -0.010103 0.00337555 2650 
1288 1 -0.002467 0.00739068 -0.014044 0.000116 0 -0.011753 0 2650 
2222 1 -0.000300402 0.00816496 -0.0141391 0.000423 -0.00549102 -0.00568171 -0.00117535 2650 
963 1 -0.00493119 0.008967 -0.0141116 0.000116 -0.0353923 -0.062899 -0.0407773 2650 
1986 1 -0.00311902 0.00943328 -0.0140936 0.000656 0.00762539 0.0149956 0.0116892 2650 
1476 1 -0.006941 0.0101907 -0.013435 0.000423 0 -0.011753 0 2650 
233 1 -0.0047874 0.0100488 -0.0137537 0.000423 0.000342891 -0.00976437 -0.0328705 2650 
4257 1 -0.00848984 0.0110527 -0.014165 0.000116 0.0101268 -0.0416798 0.0036163 2650 
1409 1 -0.00044 0.0111707 -0.013868 0.000116 0 -0.011753 0 2650 
3644 1 -0.000818294 0.0122177 -0.0140344 0.000423 -0.00432743 0.00711996 -0.0325914 2650 
3632 1 -0.00915009 0.0127843 -0.0137396 0.000423 -0.0221559 0.000444483 0.0133776 2650 
3932 1 -0.0053485 0.019674 -0.0137657 0.000116 0.03152 0.0411719 0.0597923 2650 
295 1 -0.0676673 -0.0152433 -0.0128902 0.000116 -0.59753 -0.233522 3.13673 2650 
330 1 -0.00641263 -0.00275211 -0.0131967 4.2e-05 -0.0696064 -0.0147686 0.0345761 2650 
4097 1 -0.00858031 -0.00228113 -0.0132522 0.000423 -0.0116536 0.00229875 0.0371095 2650 
1468 1 -0.00403344 -0.00120713 -0.0128841 0.000423 -0.0197001 -0.0470204 -0.0326717 2650 
509 1 -0.00722977 -0.000609293 -0.0133581 0.000116 -0.00521486 0.00944493 -0.0325939 2650 
4126 1 -0.0041301 -7.29075e-05 -0.0133621 0.000116 -0.0261531 0.0084042 0.00402279 2650 
3551 1 -0.00604134 0.000111663 -0.0131705 0.000423 -0.0216652 0.0127841 -0.0071385 2650 
541 1 -0.00602775 0.000521715 -0.0128797 4.2e-05 -0.0143735 0.00954058 0.00936495 2650 
2525 1 -0.004063 0.00161768 -0.013231 4.2e-05 0 -0.011753 0 2650 
2619 1 -0.005851 0.00243368 -0.012854 0.000116 0 -0.011753 0 2650 
3880 1 -0.010277 0.00334968 -0.012913 0.000423 0 -0.011753 0 2650 
2609 1 -0.00886 0.00315768 -0.013248 0.000116 0 -0.011753 0 2650 
3645 1 -0.0051074 0.00339431 -0.0128813 0.000423 -0.0357151 -0.0039173 0.0164321 2650 
3917 1 -0.003984 0.00391868 -0.012703 0.000116 0 -0.011753 0 2650 
1171 1 -0.00832221 0.00462592 -0.0133078 0.000116 -0.0146011 -0.0168948 -0.0399555 2650 
2918 1 -0.00757 0.00450868 -0.012948 0.000116 0 -0.011753 0 2650 
450 1 -0.00666395 0.00442504 -0.0133788 0.000656 0.0113486 0.0469175 0.00740751 2650 
2059 1 -0.003583 0.00412768 -0.012756 0.000116 0 -0.011753 0 2650 
3380 1 -0.002208 0.00463169 -0.0127905 0.000116 -0.00133046 -0.0120531 0.0302183 2650 
2512 1 -0.0097433 0.00478105 -0.0131953 0.000116 0.002514 -0.0160812 -0.0313025 2650 
2219 1 -0.00422612 0.0055068 -0.012715 0.000423 0.0573797 0.046564 0.0166916 2650 
4078 1 -0.00867088 0.00646524 -0.0127374 0.000423 -0.0196946 -0.00953845 0.00130892 2650 
2913 1 -0.00703706 0.00706056 -0.0129501 0.000116 -0.028239 -0.0119827 -0.0130286 2650 
1427 1 -0.002948 0.00645868 -0.013376 4.2e-05 0 -0.011753 0 2650 
1237 1 -0.0103656 0.00766751 -0.0128933 0.000423 0.0229951 -0.00489968 0.00418074 2650 
3259 1 -0.00853712 0.00773689 -0.0131312 0.000116 -0.0089878 -0.00810535 0.00538998 2650 
1519 1 -0.00206736 0.00741462 -0.0132099 0.000116 -0.0494896 0.0341374 0.0501115 2650 
1795 1 -0.0087723 0.00845751 -0.0129606 0.000423 0.00165908 -0.0118589 -0.000959055 2650 
1769 1 -0.00609872 0.00864974 -0.0132786 0.000656 -0.0180455 -0.00259761 -0.00548469 2650 
1250 1 -0.00764318 0.00910273 -0.0127666 0.000423 -0.0109693 -0.0170514 -0.0143142 2650 
205 1 -0.000744 0.00917468 -0.01334 0.000116 0 -0.011753 0 2650 
2483 1 -0.00911782 0.00980929 -0.0133299 0.000116 0.00258646 -0.0218162 0.0129531 2650 
1827 1 -0.0054654 0.00953536 -0.0131474 0.000116 -0.0556457 -0.0263815 -0.0392498 2650 
949 1 -0.00617587 0.0104644 -0.0126418 0.000116 -0.0176518 0.0277962 -0.00593252 2650 
3007 1 -0.000961596 0.0115325 -0.0132272 0.000423 -0.0135196 -0.00505473 -0.0280609 2650 
1775 1 -0.00822667 0.0119171 -0.0130373 0.000423 -7.29146e-05 -0.011186 -0.000346901 2650 
478 1 -0.00682558 0.0146654 -0.0129554 0.000423 -0.0255767 0.012458 -0.051203 2650 
675 1 -0.00492721 0.0202365 -0.0126582 0.000423 -0.0171714 0.0807922 0.0289201 2650 
1060 1 -0.0678305 -0.0397325 -0.012002 0.000116 -0.44102 -0.690724 2.49246 2650 
2361 1 -0.0358397 -0.0118315 -0.0124028 0.000423 -5.04408 -0.974927 -1.8283 2650 
2413 1 -0.00790679 -0.00246475 -0.0119666 4.2e-05 -0.0826713 -0.0311639 0.0536157 2650 
2468 1 -0.003167 -0.00198432 -0.012131 0.000423 0 -0.011753 0 2650 
545 1 -0.002328 -0.00235732 -0.012432 4.2e-05 0 -0.011753 0 2650 
1763 1 -0.001143 -0.00169632 -0.012442 0.000656 0 -0.011753 0 2650 
2645 1 -0.00539692 -0.000981332 -0.0124616 0.000656 -0.0339684 -0.013594 0.0452752 2650 
3191 1 -0.00680764 -0.000343254 -0.0125013 0.000656 -0.0168446 0.00288294 -0.00297772 2650 
1422 1 -0.003881 0.000149679 -0.012349 4.2e-05 0 -0.011753 0 2650 
388 1 -0.00763614 0.00108799 -0.0124185 0.000116 0.0212466 0.0335067 0.0250458 2650 
3201 1 -0.00616993 0.000977966 -0.0125125 0.000423 -0.00608722 0.0216696 0.0089772 2650 
1799 1 -0.00323189 0.000959091 -0.0120577 0.000423 7.10678e-05 -0.0118308 4.63239e-05 2650 
3956 1 -0.00902755 0.00181418 -0.0123017 0.000656 -0.000640959 -0.0104529 -0.000368355 2650 
3389 1 -0.010415 0.00241568 -0.012026 0.000116 0 -0.011753 0 2650 
1125 1 -0.00526767 0.00309279 -0.0120469 0.000423 -0.0456429 0.0111646 0.0284182 2650 
2957 1 -0.0020263 0.00393185 -0.0122569 4.2e-05 0.0205169 0.0248349 -0.000218849 2650 
411 1 -0.0103176 0.00466197 -0.0120889 0.000116 -0.00787832 -0.00657823 -8.20909e-05 2650 
3826 1 -0.009208 0.00431068 -0.012552 0.000116 0 -0.011753 0 2650 
1032 1 -0.00740577 0.0041335 -0.012404 0.000423 -0.0176094 -0.00837615 -0.056411 2650 
2912 1 -0.00604286 0.004541 -0.0126231 0.000116 0.0152844 0.00719243 -0.0503855 2650 
2194 1 -0.00237498 0.00463575 -0.0125125 4.2e-05 0.00491046 0.00111596 0.00228026 2650 
708 1 -0.00273283 0.00461377 -0.0120934 0.000423 -0.00318183 -0.00599768 -0.010405 2650 
3316 1 -0.008979 0.00506368 -0.012376 0.000423 0 -0.011753 0 2650 
1261 1 -0.0074464 0.00498089 -0.0124103 0.000423 -0.000148786 -0.00207045 -0.0014312 2650 
3362 1 -0.0026694 0.0051451 -0.012229 0.000116 0.000350619 -0.00253681 -0.00404217 2650 
4310 1 -0.00041284 0.00550656 -0.0125505 0.000423 0.011252 0.0218425 0.101284 2650 
3446 1 -0.002592 0.00607068 -0.012627 0.000423 0 -0.011753 0 2650 
3030 1 -0.001189 0.00657368 -0.012596 0.000116 0 -0.011753 0 2650 
4318 1 -0.00852387 0.00778383 -0.0123704 0.000423 -0.00589465 -0.00768269 0.00318441 2650 
3847 1 -0.00968844 0.00861155 -0.0124106 0.000656 0.00296919 -0.00343098 -0.00030598 2650 
1495 1 -0.004483 0.00804168 -0.012591 0.000116 0 -0.011753 0 2650 
3684 1 -0.00437471 0.00843471 -0.0123106 0.000116 0.00413104 -0.0230128 -0.00941473 2650 
4179 1 -0.00702573 0.00922092 -0.0120328 0.000423 -0.00767678 -0.0221048 -0.00852388 2650 
3173 1 -0.004958 0.00870268 -0.012321 4.2e-05 0 -0.011753 0 2650 
2630 1 -0.001036 0.00891068 -0.012074 4.2e-05 0 -0.011753 0 2650 
4002 1 -0.000443 0.00873468 -0.01223 0.000116 0 -0.011753 0 2650 
1423 1 -0.00145 0.0103907 -0.012526 4.2e-05 0 -0.011753 0 2650 
3106 1 -0.00672446 0.0115079 -0.0120581 0.000423 -0.042507 0.0242048 -0.0146805 2650 
959 1 -0.00621741 0.0115567 -0.01243 0.000116 -0.0723779 0.0623805 -0.0339909 2650 
1802 1 -0.00420811 0.0124637 -0.0118977 0.000423 0.00500259 -0.000364755 -0.0111755 2650 
2205 1 -0.00508477 0.0132751 -0.0119822 0.000656 -0.00206311 0.000112593 -0.00429342 2650 
3798 1 -0.0030603 0.013825 -0.0119252 0.000116 -0.0483102 0.213285 0.0286816 2650 
1143 1 -0.0009263 0.0142965 -0.0124289 0.000423 0.0070315 0.0110531 -0.00616027 2650 
1979 1 -0.00691842 0.0221408 -0.0124332 4.2e-05 -0.060479 0.115177 0.0648972 2650 
2109 1 -0.00556361 0.0223013 -0.0120197 0.000423 -0.0277695 0.107912 0.0279852 2650 
3573 1 -0.00881634 0.0366056 -0.0125457 0.000116 0.196545 -0.226716 -0.153339 2650 
2091 1 -0.0673306 -0.0347604 -0.0117385 0.000656 -0.463803 -0.144407 2.66032 2650 
3464 1 -0.0679146 -0.0123265 -0.0115163 0.000116 -0.53648 -0.229476 3.16376 2650 
3505 1 -0.006952 -0.00268832 -0.011235 4.2e-05 0 -0.011753 0 2650 
1022 1 -0.002093 -0.00281832 -0.011454 0.000423 0 -0.011753 0 2650 
2172 1 -0.00933666 -0.00168021 -0.011683 0.000116 0.0554355 0.00150652 -0.0523356 2650 
756 1 -0.0067616 -0.00122108 -0.011349 0.000116 0.0341966 0.124646 -0.134369 2650 
440 1 -0.00061 -0.00138632 -0.011485 4.2e-05 0 -0.011753 0 2650 
2127 1 -0.0118106 -0.000231986 -0.0113911 0.000423 -0.129436 0.0152094 0.099489 2650 
2939 1 -0.00932745 0.000396024 -0.0115395 0.000116 -0.00341769 -0.0275913 0.0148239 2650 
3200 1 -0.00800753 0.000400839 -0.0116228 0.000423 -0.0275514 -0.0115593 0.0194145 2650 
3778 1 -0.00594017 0.0011759 -0.0114575 0.000423 -0.0441284 0.0265152 0.0540744 2650 
1063 1 -0.009531 0.00233968 -0.011683 0.000116 0 -0.011753 0 2650 
3894 1 -0.005583 0.00178468 -0.011098 0.000116 0 -0.011753 0 2650 
3477 1 -0.0105595 0.00291421 -0.0112052 0.000116 0.0616358 -0.0139442 -0.0219299 2650 
1595 1 -0.00782806 0.00287515 -0.0116136 0.000423 -0.0081111 0.00198047 0.0261702 2650 
2279 1 -0.0118421 0.0032245 -0.0111985 0.000116 -0.0158908 0.0502304 0.00803902 2650 
2285 1 -0.0117319 0.00376873 -0.0116805 0.000116 -0.013552 0.00856226 -0.0313614 2650 
1192 1 -0.00479449 0.00327315 -0.0114925 0.000116 -0.0160738 0.0171838 -0.0228619 2650 
2294 1 -0.004894 0.00402068 -0.011565 0.000116 0 -0.011753 0 2650 
878 1 -0.00391042 0.00458665 -0.0112063 4.2e-05 -0.000281569 -0.00211859 -0.00050102 2650 
2474 1 -0.00254233 0.0040419 -0.0112078 0.000423 -0.00380852 -0.00865862 -0.00797376 2650 
1822 1 -0.008034 0.00507368 -0.011166 0.000116 0 -0.011753 0 2650 
3221 1 -0.00734219 0.00516699 -0.0111277 0.000423 -0.0391052 -0.000210982 -0.0190633 2650 
1758 1 -0.00201 0.00533468 -0.01144 4.2e-05 0 -0.011753 0 2650 
1215 1 -0.0115317 0.00556243 -0.0111654 0.000656 -0.0111274 -0.00319459 -0.00262745 2650 