ITEM: TIMESTEP
3174612
ITEM: NUMBER OF ATOMS
4376
ITEM: BOX BOUNDS ff ff ff
-0.15 0.15
-0.15 0.06
-0.15 0.15
ITEM: ATOMS id type x y z radius vx vy vz density 
3812 1 -0.00326156 -0.0564354 -0.0688069 0.000116 7.04917 0.315816 -0.334142 2650 
4026 1 -0.00894248 -0.0485193 -0.0683012 0.000116 2.20368 -0.850454 -0.288521 2650 
843 1 -0.0199753 -0.0533738 -0.0659243 0.000116 6.05157 1.04827 -1.83364 2650 
3683 1 -0.0203777 -0.0481923 -0.065801 0.000116 0.0823202 -0.726247 -0.0254934 2650 
1740 1 -0.0198585 -0.0626008 -0.0644675 0.000116 1.48823 0.26509 -1.02575 2650 
3440 1 -0.0325531 -0.0590993 -0.0603593 0.000423 -2.40626 -0.144079 1.29775 2650 
3252 1 -0.0238616 -0.0621087 -0.0577353 0.000116 12.0292 0.235163 -3.37907 2650 
483 1 -0.0431527 -0.0461161 -0.0532991 0.000423 -1.53618 -0.196289 1.24374 2650 
1068 1 -0.0566069 -0.0525794 -0.0392515 0.000116 -1.85415 -0.848802 2.67397 2650 
1132 1 -0.0639513 -0.0600877 -0.0247625 0.000423 -1.07733 -0.807073 2.78231 2650 
734 1 -0.0656487 -0.0548305 -0.0208632 0.000116 0.912761 -0.870332 -2.87212 2650 
1943 1 -0.065981 -0.0623602 -0.0142707 0.000116 -0.310808 0.424703 -1.75872 2650 
4019 1 -0.0673185 -0.0495372 -0.0144595 0.000116 1.87257 -1.66444 -7.21063 2650 
1135 1 -0.0684874 -0.0610221 0.00352562 0.000423 0.107239 0.180043 2.08319 2650 
3850 1 -0.0681766 -0.0572068 0.00740991 0.000423 0.298458 -0.438729 2.74603 2650 
2271 1 -0.0646537 -0.0541302 0.0237681 0.000116 0.0289202 -3.37142 0.0786685 2650 
1568 1 -0.0457834 -0.0617905 0.0510572 0.000423 1.85267 -0.227736 1.6613 2650 
1270 1 -0.028034 -0.0623697 0.0576171 0.000116 -5.15455 0.0270099 -2.3357 2650 
3329 1 -0.0322388 -0.0456391 0.0605278 0.000423 1.9486 -0.297696 1.03788 2650 
3313 1 -0.019074 -0.059761 0.0658721 0.000423 2.82574 0.140375 0.818224 2650 
1239 1 -0.0137142 -0.0618437 0.067124 0.000423 1.42356 -0.0450996 0.378158 2650 
3409 1 -0.00964126 -0.0480322 0.0676628 0.000656 2.80124 -0.394498 0.399148 2650 
2702 1 -0.00716343 -0.0583485 0.0685107 0.000116 -7.12038 0.3107 -0.744502 2650 
753 1 -0.00385357 -0.0306516 -0.0687762 0.000116 -1.05769 -0.44472 0.059263 2650 
625 1 -0.00282139 -0.0074517 -0.0688263 0.000116 -3.19244 -0.170504 0.130868 2650 
2557 1 -0.00926538 -0.0408609 -0.0678961 0.000423 -2.47275 -0.211593 0.336931 2650 
850 1 -0.0111041 -0.0318214 -0.0679832 0.000116 -2.72428 -0.0109939 0.444974 2650 
1463 1 -0.0062358 -0.0213035 -0.0682933 0.000423 -2.9135 -0.543856 0.242941 2650 
2681 1 -0.00664395 -0.00778889 -0.0682555 0.000423 -3.19525 -0.170079 0.311024 2650 
3840 1 -0.00929003 -0.029552 -0.0677119 0.000656 -2.86368 -0.650827 0.392896 2650 
2028 1 -0.0098587 -0.0232205 -0.0678657 0.000423 -2.48824 -0.237366 0.36146 2650 
3817 1 -0.0139117 -0.015833 -0.0674647 0.000116 -3.13661 -0.157973 0.64679 2650 
2954 1 -0.0122836 -0.0124869 -0.0677801 0.000116 -3.14848 -0.218579 0.570588 2650 
1136 1 -0.0153758 -0.0244359 -0.0668322 0.000423 -2.45123 -0.252255 0.563944 2650 
3729 1 -0.0156256 -0.0203883 -0.0665362 0.000656 -3.63411 -0.182427 0.852915 2650 
3881 1 -0.0174706 -0.0184203 -0.0663154 0.000423 -3.0928 -0.194436 0.814788 2650 
1410 1 -0.0170044 -0.016318 -0.0667523 0.000116 -3.10498 -0.172884 0.790957 2650 
3390 1 -0.0185369 -0.0132221 -0.0663431 0.000116 -3.08488 -0.18863 0.861944 2650 
223 1 -0.0158017 -0.0120912 -0.0664945 0.000656 -3.14569 -0.232549 0.747542 2650 
95 1 -0.00224727 -0.00482433 -0.0666652 0.000116 -2.92705 -0.103054 2.06906 2650 
336 1 -0.0188148 -0.0265384 -0.0657055 0.000656 -2.77863 -0.17294 0.795663 2650 
379 1 -0.0201443 -0.0243095 -0.0655527 0.000423 -2.3488 -0.246813 0.721784 2650 
4150 1 -0.0196392 -0.00453349 -0.0654987 0.000116 -1.92472 -0.0923552 3.82677 2650 
1619 1 -0.0220536 -0.0181237 -0.0652584 0.000116 -3.04532 -0.31684 1.02914 2650 
2367 1 -0.02137 -0.0112272 -0.0654855 0.000116 -3.04513 -0.194706 0.993724 2650 
399 1 -0.0249761 -0.0446178 -0.0641967 0.000116 8.61 1.1465 -3.34977 2650 
327 1 -0.0188049 -0.00421069 -0.0645199 4.2e-05 -2.15918 -0.0803573 2.95973 2650 
902 1 -0.0254964 -0.0201316 -0.0636623 0.000423 -2.95281 -0.28166 1.18258 2650 
2048 1 -0.0271934 -0.0125581 -0.0632893 0.000116 -2.94845 -0.201308 1.26686 2650 
3319 1 -0.0274852 -0.0364767 -0.0628292 0.000423 -1.49734 0.361549 0.655023 2650 
2588 1 -0.0285847 -0.0143424 -0.0626733 0.000116 -2.91284 -0.175789 1.32852 2650 
4305 1 -0.0289225 -0.0130297 -0.0621807 0.000423 -2.89464 -0.23155 1.3464 2650 
163 1 -0.0313151 -0.0307553 -0.0610108 0.000423 -2.47967 -0.198159 1.27274 2650 
3514 1 -0.0307955 -0.0186612 -0.0610151 0.000656 -2.87285 -0.260175 1.44999 2650 
681 1 -0.0304795 -0.0176295 -0.0614325 0.000423 -2.88184 -0.306466 1.42981 2650 
3779 1 -0.0302674 -0.00974195 -0.0615373 0.000423 -2.89209 -0.208609 1.42249 2650 
228 1 -0.0315391 -0.0196874 -0.0606341 0.000656 -2.86486 -0.254636 1.49017 2650 
2544 1 -0.0295333 -0.00763505 -0.0597348 0.000423 -1.76287 -0.262029 3.19401 2650 
3615 1 -0.0359748 -0.00785559 -0.0588305 4.2e-05 -2.74642 -0.137386 1.67943 2650 
1060 1 -0.0375916 -0.043638 -0.0577195 0.000116 1.28097 -0.71548 -1.07494 2650 
3531 1 -0.0370899 -0.0221983 -0.0576827 0.000423 -1.37016 -0.126922 0.881014 2650 
2691 1 -0.0364237 -0.0195356 -0.0581057 0.000423 -2.74172 -0.391867 1.71866 2650 
1202 1 -0.0375481 -0.0177473 -0.057839 4.2e-05 -2.64483 -0.175033 1.71698 2650 
2911 1 -0.0384006 -0.0252034 -0.0568186 0.000423 -2.50865 -0.562576 1.69546 2650 
2745 1 -0.00499321 -0.0217427 -0.0570712 4.2e-05 9.99606 -0.295596 -1.104 2650 
2087 1 -0.0390663 -0.0178357 -0.0568246 4.2e-05 -2.68637 -0.192587 1.84685 2650 
3649 1 -0.0379252 -0.0179845 -0.057137 0.000423 -2.66209 -0.228997 1.76698 2650 
575 1 -0.0388991 -0.0262384 -0.0564784 0.000423 -2.23994 -0.31382 1.54275 2650 
1407 1 -0.0399628 -0.0128872 -0.056107 0.000116 -2.61996 -0.255559 1.8661 2650 
3314 1 -0.00260915 -0.0122198 -0.0564825 0.000423 -0.436578 -0.689107 -8.49942 2650 
2232 1 -0.0398119 -0.0261423 -0.0558388 0.000423 -2.35117 -0.0811425 1.67634 2650 
2705 1 -0.04063 -0.0227099 -0.0556265 0.000116 -0.981636 -0.755794 0.697632 2650 
3372 1 -0.0406512 -0.0222951 -0.0556103 0.000116 -2.3003 0.0732783 1.68152 2650 
1952 1 -0.0410603 -0.00178914 -0.0553089 0.000116 -2.56061 -0.0683458 1.90095 2650 
2083 1 -0.0415371 -0.00435965 -0.0550443 4.2e-05 -3.71373 -0.438668 2.80242 2650 
2350 1 -0.0418706 -0.0128916 -0.0543121 0.000423 -2.54191 -0.226624 1.95962 2650 
1275 1 -0.0429219 -0.00956143 -0.053877 0.000116 -2.50475 -0.18693 1.99545 2650 
1461 1 -0.042875 -0.0182888 -0.0535228 0.000423 -2.50669 -0.231811 2.00801 2650 
3038 1 -0.043203 -0.00185723 -0.0536519 0.000116 -1.70472 1.58202 1.37272 2650 
38 1 -0.0437588 -0.0281483 -0.0528027 0.000423 -2.29527 -0.283026 1.90215 2650 
2256 1 -0.0441816 -0.026353 -0.0528489 0.000116 -0.928345 -0.770007 0.776095 2650 
4069 1 -0.0437214 -0.0141821 -0.0528337 0.000423 -2.46694 -0.294058 2.04146 2650 
4009 1 -0.0443228 -0.0122966 -0.0527306 0.000116 -2.45047 -0.20511 2.05975 2650 
3375 1 -0.0445267 -0.00656134 -0.0525585 0.000116 -2.44393 -0.150682 2.07046 2650 
2051 1 -0.0463376 -0.0164012 -0.0509691 0.000116 -2.37291 -0.213487 2.15729 2650 
83 1 -0.0474857 -0.0190909 -0.0499012 0.000116 -2.32474 -0.295711 2.21221 2650 
759 1 -0.0473303 -0.0140613 -0.0500486 0.000116 -2.30646 -0.0136636 2.18119 2650 
868 1 -0.000817317 -0.00399137 -0.050019 0.000116 -0.124441 -0.0926499 -7.61566 2650 
747 1 -0.0478561 -0.0315901 -0.0495461 0.000116 -2.65936 -0.586887 2.56865 2650 
427 1 -0.0477755 -0.0306729 -0.0496238 0.000116 -0.769814 -0.396078 0.741142 2650 
3671 1 -0.0477557 -0.00919976 -0.0492173 0.000423 -2.30244 -0.216511 2.23407 2650 
2198 1 -0.0485591 -0.00685012 -0.0489615 4.2e-05 -2.27339 -0.156395 2.2547 2650 
981 1 -0.0504054 -0.018487 -0.0470586 4.2e-05 -2.17552 -0.255999 2.33024 2650 
2703 1 -0.0508613 -0.0158305 -0.0464559 0.000116 -2.15964 -0.284505 2.36443 2650 
167 1 -0.0511369 -0.0111284 -0.0461523 0.000116 -2.13201 -0.310139 2.36228 2650 
2920 1 -0.0525665 -0.0247042 -0.0445172 0.000116 2.29378 -0.309091 -2.70852 2650 
2858 1 -0.0527875 -0.0188213 -0.0434131 0.000656 -2.32442 -0.0217707 2.82634 2650 
2966 1 -0.053268 -0.0174802 -0.0428221 0.000656 -1.98688 -0.42195 2.47155 2650 
2291 1 -0.0538452 -0.00792675 -0.0429618 0.000116 -1.99845 -0.174488 2.50471 2650 
2895 1 -0.0552669 -0.0131003 -0.0406021 0.000423 -1.89687 -0.168738 2.58199 2650 
4087 1 -0.0564969 -0.020385 -0.0388723 0.000423 -1.58608 -0.159686 2.30399 2650 
3018 1 -0.0571091 -0.0325238 -0.0379671 0.000423 -1.66623 -0.490983 2.50631 2650 
2928 1 -0.0553616 -0.0213089 -0.0383959 0.000116 0.954181 -0.271062 -1.61436 2650 
1924 1 -0.056796 -0.0146884 -0.0381615 0.000423 -2.39785 -0.59289 2.26784 2650 
1585 1 -0.0429892 -0.00496105 -0.038554 0.000423 -6.69924 -0.147964 -6.00458 2650 
3580 1 -0.0581698 -0.01602 -0.0368957 0.000116 -1.68914 -0.207661 2.6631 2650 
2102 1 -0.0575171 -0.00182273 -0.0369187 0.000656 -1.53386 -0.126314 2.38966 2650 
1905 1 -0.0590103 -0.0303444 -0.0349391 0.000423 -1.41709 -0.156361 2.39339 2650 
2732 1 -0.060371 -0.014614 -0.0331717 0.000116 -1.54271 -0.391484 2.80766 2650 
3154 1 -0.0599995 -0.00274533 -0.033839 0.000116 -2.04817 0.668915 3.63159 2650 
1914 1 -0.0611098 -0.0288112 -0.0311214 0.000423 -1.23093 -0.252242 2.41704 2650 
428 1 -0.0616208 -0.0107984 -0.030788 0.000116 -1.43665 -0.326439 2.87539 2650 
893 1 -0.0613605 -0.0423781 -0.0306242 0.000423 -1.16818 -0.0527335 2.34064 2650 
2165 1 -0.0625995 -0.0106315 -0.0287459 0.000116 -1.32872 -0.23787 2.89354 2650 
2039 1 -0.0631784 -0.0338336 -0.0274502 0.000116 -0.980607 0.452665 2.25693 2650 
615 1 -0.0552385 -0.00617348 -0.0248929 0.000116 -8.36067 -0.2668 -3.71971 2650 
3603 1 -0.0152873 -0.0042477 -0.025217 0.000116 -2.23493 -0.123367 -3.65154 2650 
1537 1 -0.0569844 -0.0222544 -0.0230228 4.2e-05 8.09376 -1.06753 -4.40329 2650 
1841 1 -0.0647678 -0.0123413 -0.0234553 0.000116 -1.09062 -0.192719 3.01155 2650 
4056 1 -0.00225339 -0.00703486 -0.0215073 0.000656 -0.20914 -0.613505 -2.24462 2650 
3470 1 -0.0662739 -0.009564 -0.0187828 0.000116 -0.87353 -0.190464 3.08219 2650 
4128 1 -0.0663548 -0.00471446 -0.0183712 0.000116 0.129712 -0.0964836 3.37581 2650 
1214 1 -0.0660606 -0.0359921 -0.0175272 0.000656 -0.765721 -0.0892951 2.88602 2650 
343 1 -0.000509298 -0.0048775 -0.0178628 0.000423 -0.0337328 -1.04909 -1.23538 2650 
3946 1 -0.0667679 -0.0429968 -0.017241 4.2e-05 1.64432 -1.31215 -6.36783 2650 
1481 1 -0.0664378 -0.0183069 -0.016999 0.000423 -0.483303 -0.192505 1.88891 2650 
1207 1 -0.0668676 -0.0174759 -0.0168502 4.2e-05 -0.634188 0.682429 2.51668 2650 
606 1 -0.000183 0.00417534 -0.016592 0.000116 0 -0.011753 0 2650 
2713 1 -0.000763 0.0111463 -0.016767 0.000116 0 -0.011753 0 2650 
3904 1 -0.00388971 -0.00229668 -0.0163758 0.000116 -0.0737869 -0.0435085 -0.0791619 2650 
2875 1 -0.00176753 -0.00172443 -0.01601 0.000423 -0.0519498 -0.0301432 -0.0177238 2650 
4116 1 -0.004072 -0.00148166 -0.016193 0.000116 0 -0.011753 0 2650 
2127 1 -0.00319481 -0.00152644 -0.0162098 0.000423 -0.161404 0.0515497 0.0352817 2650 
2645 1 -0.00238511 -0.000716014 -0.0158108 0.000656 -0.0636737 0.00703526 0.0681332 2650 
1991 1 -0.00342515 0.000701787 -0.0158711 0.000656 -0.0262826 -0.000616428 0.00271434 2650 
150 1 -0.00196644 0.000605984 -0.0163098 0.000423 -0.00905839 0.0051051 -0.00106565 2650 
736 1 -0.003429 0.00210034 -0.016474 0.000116 0 -0.011753 0 2650 
676 1 -0.000770533 0.00192118 -0.016172 0.000423 -0.0285827 0.0077176 0.0232959 2650 
2013 1 -0.00297699 0.00349488 -0.0162318 0.000423 0.00298908 -0.00809762 0.00112683 2650 
1698 1 -0.000386706 0.00340285 -0.0161448 0.000423 -0.0123561 0.00250859 -0.0148315 2650 
234 1 -0.00410068 0.00524629 -0.0159085 0.000423 0.0351287 -0.0167305 0.0264562 2650 
2301 1 -0.004222 0.00594834 -0.016305 4.2e-05 0 -0.011753 0 2650 
3789 1 -0.0013172 0.00587591 -0.0162989 0.000116 0.030547 0.0102001 0.00865191 2650 
188 1 -0.00068 0.00571734 -0.016516 0.000116 0 -0.011753 0 2650 
3546 1 -0.0016192 0.00652532 -0.0163139 0.000423 0.0221028 0.00916909 -0.0203984 2650 
3616 1 -0.000938 0.00651234 -0.016074 4.2e-05 0 -0.011753 0 2650 
508 1 -0.0034054 0.0073302 -0.0164772 0.000116 -0.0781642 0.00970087 0.0217657 2650 
3934 1 -0.001977 0.00893734 -0.016218 0.000116 0 -0.011753 0 2650 
1979 1 -0.00317399 0.0150098 -0.0164512 4.2e-05 -0.060479 0.115177 0.0648972 2650 
2559 1 -0.00410937 -0.00406216 -0.015759 0.000423 0.0776243 -0.570011 0.00187394 2650 
2606 1 -0.00127581 -0.0029833 -0.0154976 0.000116 -0.0805419 -0.112845 0.0598694 2650 
2965 1 -0.00120971 -0.00253184 -0.0151805 4.2e-05 -0.0448143 -0.0612344 0.0351436 2650 
93 1 -0.00619883 -0.00170334 -0.0155125 0.000116 -0.0674932 -0.0307806 0.026204 2650 
330 1 -0.00210309 -0.00183774 -0.0153374 4.2e-05 -0.0696064 -0.0147686 0.0345761 2650 
2690 1 -0.0016663 -0.00233534 -0.015283 0.000423 -0.0110062 -0.0487697 -0.0147461 2650 
3196 1 -0.00614001 -0.00135034 -0.0150265 0.000423 0.000846778 -0.0279426 0.0233611 2650 
1808 1 -0.00371181 -0.00146038 -0.015534 0.000423 -0.0966404 -0.00118351 0.0721156 2650 
3733 1 -0.00440561 -4.52005e-05 -0.0154172 0.000656 -0.0248277 0.00314984 0.0161296 2650 
1618 1 -0.00589171 0.00233506 -0.0153137 0.000116 -0.0316941 0.0615295 0.00665882 2650 
2313 1 -0.00493795 0.00199257 -0.0154172 0.000656 -0.00048439 0.0541327 0.00642736 2650 
1679 1 -0.00361484 0.00321707 -0.015648 0.000423 -0.000267589 -0.00703629 -0.00433961 2650 
2399 1 -0.002418 0.00438934 -0.015541 0.000116 0 -0.011753 0 2650 
3121 1 -0.00567528 0.00504177 -0.0153862 0.000423 0.0277737 -0.000599869 -0.0089826 2650 
4296 1 -0.00151971 0.00483438 -0.0157597 0.000423 0.00734757 -0.0161826 -0.00468825 2650 
1219 1 -0.00228204 0.00562411 -0.0155967 0.000656 0.0247953 0.0119825 -0.00616517 2650 
2969 1 -0.00135717 0.0069939 -0.0153067 0.000656 0.00354333 -0.00674524 0.00643714 2650 
978 1 -0.005372 0.00763534 -0.015286 0.000116 0 -0.011753 0 2650 
2596 1 -0.00540402 0.008694 -0.0152742 0.000116 -0.0696583 -0.0414928 -0.0233005 2650 
86 1 -0.002064 0.0101933 -0.015055 0.000116 0 -0.011753 0 2650 
3177 1 -0.001068 0.00999334 -0.015412 4.2e-05 0 -0.011753 0 2650 
3830 1 -0.006879 0.0104893 -0.015411 4.2e-05 0 -0.011753 0 2650 
938 1 -0.000869 0.0113993 -0.015416 0.000116 0 -0.011753 0 2650 
3455 1 -0.00255331 0.0151523 -0.0155921 0.000423 -0.039909 0.0392628 -0.197047 2650 
4267 1 -0.00523299 0.0239549 -0.0152655 4.2e-05 0.0268407 0.137161 0.0861779 2650 
2701 1 -0.00114 0.0250844 -0.0155477 0.000116 0.0331549 0.247236 -0.00676049 2650 
1347 1 -0.00530059 0.0351565 -0.0154728 0.000423 -0.162332 0.209952 0.0301271 2650 
3502 1 -0.001236 -0.00270166 -0.014816 4.2e-05 0 -0.011753 0 2650 
1640 1 -0.00114792 -0.00137993 -0.0147368 4.2e-05 0.028899 -0.0133034 -0.0332578 2650 
541 1 -0.00387983 -0.000201612 -0.0149153 4.2e-05 -0.0428204 0.0143713 0.0426846 2650 
2413 1 -0.003433 -0.000686659 -0.014868 4.2e-05 0 -0.011753 0 2650 
3441 1 -0.00247407 -0.000436875 -0.014379 0.000423 0.0511961 0.0224295 0.00157087 2650 
1053 1 -0.007469 0.000547341 -0.014946 0.000116 0 -0.011753 0 2650 
2332 1 -0.00328371 0.000857641 -0.0147657 0.000423 -0.00175235 -0.00960017 0.00973446 2650 
3239 1 -0.00216921 0.000799066 -0.0144729 0.000116 -0.00859694 0.0134975 -0.018679 2650 
1620 1 -0.00759044 0.0035602 -0.0147466 0.000116 0.0432755 0.0552866 -0.0445268 2650 
220 1 -0.003649 0.00345234 -0.014897 4.2e-05 0 -0.011753 0 2650 
3322 1 -0.00456087 0.00437027 -0.0148981 0.000423 0.00353739 -0.017928 0.0139954 2650 
3380 1 -0.00210105 0.00523002 -0.0146608 0.000116 -0.00549837 0.0130283 0.0301104 2650 
3147 1 -0.00187084 0.00606472 -0.014493 0.000116 0.0591802 0.0154935 -0.054385 2650 
3564 1 -0.000147 0.00617834 -0.014738 0.000423 0 -0.011753 0 2650 
2438 1 -0.00561953 0.00678184 -0.0146223 0.000423 -0.00278545 -0.000108858 -0.00379545 2650 
3365 1 -0.002315 0.00681534 -0.014552 0.000116 0 -0.011753 0 2650 
4190 1 -0.00749057 0.00859468 -0.0146932 0.000423 -0.0186912 -0.00700163 -0.00506665 2650 
1986 1 -0.00359113 0.00850486 -0.0148173 0.000656 0.00762539 0.0149956 0.0116892 2650 
3515 1 -0.00640109 0.00870558 -0.0148512 0.000656 -0.0124684 -0.0117033 0.0111726 2650 
1228 1 -0.00132728 0.010268 -0.0149588 0.000423 -0.00123313 -0.0118667 -0.000623591 2650 
371 1 -0.000521032 0.010505 -0.0147335 0.000423 0.000724313 -0.00601752 -0.0061741 2650 
3669 1 -0.000451571 0.0113093 -0.014321 0.000423 0.00220454 -0.00743356 -0.00383523 2650 
3632 1 -0.00772663 0.0127863 -0.0145671 0.000423 -0.0240755 -0.00064867 0.0133566 2650 
675 1 -0.00385904 0.0151088 -0.0146152 0.000423 -0.0185613 0.11548 0.0749126 2650 
1254 1 -0.00648682 0.0226922 -0.014286 0.000423 -0.0693317 0.161023 -0.144827 2650 
3205 1 -0.000638028 0.0245824 -0.014278 0.000423 -0.0474712 0.144601 0.126977 2650 
528 1 -0.0642008 -0.00641552 -0.0134604 0.000116 -0.812606 -0.183156 2.9856 2650 
3295 1 -0.00771497 -0.00195287 -0.0134742 0.000656 -0.140895 0.0623342 -0.0300138 2650 
955 1 -0.00670262 -0.00147933 -0.0138664 0.000116 -0.12233 -0.0547202 -0.0330024 2650 
3999 1 -0.00118885 -0.00111768 -0.014147 0.000423 0.0633343 0.0169118 -0.00164129 2650 
388 1 -0.00897161 -0.000627944 -0.0140334 0.000116 0.0236814 -0.0100826 0.0328607 2650 
3200 1 -0.00740656 -0.000406156 -0.0135412 0.000423 0.0205513 0.040167 0.0362369 2650 
4126 1 -0.00251089 -0.000593236 -0.0136112 0.000116 -0.0261531 0.0084042 0.00402279 2650 
3778 1 -0.00392733 0.000199012 -0.0138465 0.000423 -0.00179903 -0.0118226 -0.00159569 2650 
2827 1 -0.00343685 0.000501722 -0.0138981 0.000116 -0.025498 -0.0149893 -0.0266212 2650 
2783 1 -0.0019181 0.000439926 -0.0141364 0.000423 0.0360827 0.036432 -0.00772183 2650 
3798 1 -6.9275e-05 0.000619873 -0.013701 0.000116 -0.0483102 0.213285 0.0286816 2650 
3637 1 -0.00297558 0.00100105 -0.0139881 0.000423 -0.0242757 0.00976039 -0.0494611 2650 
450 1 -0.00773003 0.00162024 -0.0141554 0.000656 0.0342918 0.0445169 0.027581 2650 
248 1 -0.00430147 0.0017647 -0.0138412 0.000423 -0.125752 -0.00445654 0.0417904 2650 
1125 1 -0.00248869 0.00212351 -0.0134402 0.000423 -0.0447254 0.0166037 0.0212545 2650 
2219 1 -0.0077792 0.00266168 -0.0137372 0.000423 0.0576419 0.0279299 0.011145 2650 
1774 1 -0.000345323 0.00253984 -0.0134313 0.000423 0.0334231 0.0535311 -0.0530131 2650 
1093 1 -0.00489808 0.00335314 -0.014016 4.2e-05 -0.0377884 0.0174852 0.109535 2650 
3645 1 -0.00278273 0.0037246 -0.0139007 0.000423 -0.0384881 -0.00405051 0.0134405 2650 
222 1 -0.00163018 0.00368038 -0.0136519 0.000656 -0.000929496 -0.0489405 -0.0286938 2650 
3587 1 -0.0060937 0.0040412 -0.0138058 0.000116 0.00461134 0.0023037 -0.00278329 2650 
104 1 -0.00240801 0.0046067 -0.0141603 4.2e-05 -0.00674979 0.0150481 0.0116551 2650 
4165 1 -0.0053617 0.00583088 -0.0141654 0.000656 0.00463225 0.00751739 0.0156563 2650 
1584 1 -0.00241452 0.0059037 -0.0141651 0.000423 0.0364201 -0.0107182 -0.0600501 2650 
2322 1 -0.007484 0.00802204 -0.0137742 0.000656 -0.0072434 -0.0058036 -0.00285609 2650 
1288 1 -0.002467 0.00811834 -0.014044 0.000116 0 -0.011753 0 2650 
2222 1 -0.000169 0.00874734 -0.014111 0.000423 0 -0.011753 0 2650 
581 1 -0.005568 0.00963934 -0.014167 0.000423 0 -0.011753 0 2650 
1476 1 -0.006941 0.0109183 -0.013435 0.000423 0 -0.011753 0 2650 
2483 1 -0.00911884 0.0112066 -0.0138616 0.000116 -0.0165283 -0.027419 -0.0195094 2650 
1409 1 -0.00044 0.0118983 -0.013868 0.000116 0 -0.011753 0 2650 
2109 1 -0.00384935 0.0157457 -0.0135858 0.000423 -0.0263796 0.073224 -0.0180073 2650 
85 1 -0.00943387 0.0217818 -0.0135887 0.000116 -0.133393 -0.599583 -0.410525 2650 
2467 1 -0.00362127 0.0214505 -0.01419 0.000423 0.022189 0.122131 -0.0980488 2650 
2209 1 -0.00841334 0.0239823 -0.0139108 0.000656 0.227037 0.0396043 -0.1192 2650 
1357 1 -0.00834269 0.0257071 -0.0138874 0.000423 0.0624779 0.287902 -0.0352894 2650 
819 1 -0.0074554 0.028833 -0.0138062 0.000423 0.076373 0.150736 0.0329282 2650 
601 1 -0.0673041 -0.0200732 -0.0131573 0.000423 -0.573185 -0.194044 2.93209 2650 
3633 1 -0.00941 -0.00308566 -0.013111 0.000423 0 -0.011753 0 2650 
1393 1 -0.0104907 -0.00232386 -0.0130702 0.000116 -0.0365642 -0.00979486 0.0367338 2650 
3303 1 -0.00981385 -0.00104352 -0.0128748 0.000656 -0.0523955 0.0509296 0.0372036 2650 
3351 1 -0.000117386 -7.2247e-05 -0.0133436 0.000116 0.0916923 -0.0624662 0.0949948 2650 
3551 1 -0.005293 0.000259341 -0.013215 0.000423 0 -0.011753 0 2650 
2525 1 -0.004063 0.00234534 -0.013231 4.2e-05 0 -0.011753 0 2650 
1595 1 -0.007474 0.00300334 -0.012756 0.000423 0 -0.011753 0 2650 
2609 1 -0.00886 0.00388534 -0.013248 0.000116 0 -0.011753 0 2650 
2619 1 -0.005851 0.00316134 -0.012854 0.000116 0 -0.011753 0 2650 
2283 1 -0.000296998 0.00340148 -0.0134001 0.000116 0.0261736 0.0795444 -0.0359083 2650 
3880 1 -0.010277 0.00407734 -0.012913 0.000423 0 -0.011753 0 2650 
3917 1 -0.003984 0.00464634 -0.012703 0.000116 0 -0.011753 0 2650 
2194 1 -0.002679 0.00456666 -0.0126536 4.2e-05 0.00491046 0.00111596 0.00228026 2650 
2918 1 -0.00757 0.00523634 -0.012948 0.000116 0 -0.011753 0 2650 
2059 1 -0.003583 0.00485534 -0.012756 0.000116 0 -0.011753 0 2650 
2547 1 -0.0101692 0.00648542 -0.0129964 0.000423 -0.0187488 0.0289195 0.0215408 2650 
4078 1 -0.00745152 0.0070558 -0.0128184 0.000423 -0.0196946 -0.00953845 0.00130892 2650 
1427 1 -0.002948 0.00718634 -0.013376 4.2e-05 0 -0.011753 0 2650 
3259 1 -0.00809938 0.00827213 -0.0133665 0.000116 -0.00597746 -0.00895275 0.0028953 2650 
713 1 -0.00607867 0.0082089 -0.0127451 0.000423 -0.0229952 -0.0104665 0.0222494 2650 
1795 1 -0.008775 0.00918534 -0.012959 0.000423 0 -0.011753 0 2650 
1769 1 -0.00516245 0.00907171 -0.0131339 0.000656 -0.011011 -0.0133928 0.00327466 2650 
958 1 -0.00428285 0.00944671 -0.0132154 0.000116 0.0401715 0.0303898 0.081686 2650 
205 1 -0.000744 0.00990234 -0.01334 0.000116 0 -0.011753 0 2650 
4257 1 -0.0104695 0.0124353 -0.0128968 0.000116 0.0616028 0.00285205 -0.0504011 2650 
1775 1 -0.00822216 0.0126097 -0.0130158 0.000423 -7.29146e-05 -0.011186 -0.000346901 2650 
3644 1 -0.000733 0.0125733 -0.013392 0.000423 0 -0.011753 0 2650 
884 1 -0.00639988 0.013915 -0.0129614 0.000656 -0.0213431 0.0225291 0.0346991 2650 
1900 1 -0.00756653 0.0271833 -0.012983 0.000423 0.00650864 0.175596 0.0646267 2650 
3960 1 -0.00870053 -0.00180103 -0.0119944 0.000423 -0.0011096 -0.0310235 -0.0206256 2650 
2166 1 -0.00945991 -0.00210892 -0.0118886 0.000116 -0.0143174 -0.0293231 -0.0106889 2650 
545 1 -0.002328 -0.00162966 -0.012432 4.2e-05 0 -0.011753 0 2650 
2819 1 -0.007468 -0.00109566 -0.012046 0.000116 0 -0.011753 0 2650 
2468 1 -0.003167 -0.00125666 -0.012131 0.000423 0 -0.011753 0 2650 
1763 1 -0.001143 -0.000968659 -0.012442 0.000656 0 -0.011753 0 2650 
950 1 -0.010031 -0.000363659 -0.011866 0.000116 0 -0.011753 0 2650 
3191 1 -0.00615113 -0.000689663 -0.0119427 0.000656 -0.00833246 0.0061838 -0.01197 2650 
2817 1 -0.00272486 0.000295935 -0.0123612 0.000116 -0.0539328 -0.00567838 -0.0938536 2650 
623 1 -0.00590634 0.00124285 -0.0125006 0.000116 -0.0418007 -0.0241435 -0.0222958 2650 
3201 1 -0.0053298 0.00147082 -0.0123534 0.000423 -0.0306487 -0.0168839 -0.0321676 2650 
1422 1 -0.003881 0.000877341 -0.012349 4.2e-05 0 -0.011753 0 2650 
1799 1 -0.00323629 0.00169157 -0.0120605 0.000423 7.10678e-05 -0.0118308 4.63239e-05 2650 
3389 1 -0.010415 0.00314334 -0.012026 0.000116 0 -0.011753 0 2650 
3956 1 -0.00898355 0.00247922 -0.0122814 0.000656 -0.000838464 -0.0112695 -0.000254236 2650 
2957 1 -0.00329656 0.00239425 -0.0122434 4.2e-05 0.0205169 0.0248349 -0.000218849 2650 
1569 1 -0.00337132 0.00421375 -0.0119768 0.000423 -0.0101167 -0.00131963 0.0156048 2650 
411 1 -0.00982979 0.00506925 -0.0120838 0.000116 -0.00787832 -0.00657823 -8.20909e-05 2650 
3826 1 -0.009208 0.00503834 -0.012552 0.000116 0 -0.011753 0 2650 
3316 1 -0.008979 0.00579134 -0.012376 0.000423 0 -0.011753 0 2650 
1261 1 -0.007462 0.00569534 -0.012403 0.000423 0 -0.011753 0 2650 
3362 1 -0.002672 0.00580434 -0.012199 0.000116 0 -0.011753 0 2650 
3446 1 -0.002592 0.00679834 -0.012627 0.000423 0 -0.011753 0 2650 
2913 1 -0.0052887 0.00780244 -0.0121435 0.000116 -0.028239 -0.0119827 -0.0130286 2650 
3030 1 -0.001189 0.00730134 -0.012596 0.000116 0 -0.011753 0 2650 
191 1 -0.011348 0.00862234 -0.012254 0.000116 0 -0.011753 0 2650 
4318 1 -0.00815892 0.00825949 -0.0125676 0.000423 -0.00589465 -0.00768269 0.00318441 2650 
3847 1 -0.00973528 0.00922773 -0.0124048 0.000656 6.67707e-05 -0.0116743 2.1441e-05 2650 
3173 1 -0.004958 0.00943034 -0.012321 4.2e-05 0 -0.011753 0 2650 
1495 1 -0.004483 0.00876934 -0.012591 0.000116 0 -0.011753 0 2650 
4002 1 -0.000443 0.00946234 -0.01223 0.000116 0 -0.011753 0 2650 
1250 1 -0.007399 0.00994834 -0.012448 0.000423 0 -0.011753 0 2650 
2630 1 -0.001036 0.00963834 -0.012074 4.2e-05 0 -0.011753 0 2650 
70 1 -0.0104339 0.0109849 -0.0118833 0.000116 0.00881709 0.0274246 0.0240282 2650 
65 1 -0.01004 0.0107494 -0.0120107 0.000116 -0.0854753 -0.0262945 -0.00799851 2650 
233 1 -0.00484964 0.0107181 -0.0119018 0.000423 0.00253467 -0.0140185 -0.0192435 2650 
1423 1 -0.00145 0.0111183 -0.012526 4.2e-05 0 -0.011753 0 2650 
963 1 -0.00200409 0.0124601 -0.0119683 0.000116 -0.0512099 -0.0542754 -0.0325787 2650 
2205 1 -0.00496048 0.0131942 -0.0119902 0.000656 -0.00241752 0.00375043 0.00610124 2650 
1143 1 -0.00136164 0.0136122 -0.0120475 0.000423 0.0070315 0.0110531 -0.00616027 2650 
3216 1 -0.00173513 0.0158178 -0.0119533 0.000423 -0.0601615 0.128493 -0.0913681 2650 
728 1 -0.00292659 0.0183881 -0.0126275 0.000116 0.0277452 0.106546 0.043675 2650 
3453 1 -0.0074454 0.0367742 -0.0122632 0.000423 0.0494691 0.284608 0.0822627 2650 
2832 1 -0.0263294 -0.00445491 -0.0112913 0.000116 -3.79399 -0.143329 -1.62295 2650 
3679 1 -0.012092 -0.00291866 -0.011604 0.000116 0 -0.011753 0 2650 
3357 1 -0.0096328 -0.00299234 -0.0115871 0.000116 -0.0135525 -0.140659 -0.167687 2650 
2072 1 -0.009308 -0.00305666 -0.011721 0.000116 0 -0.011753 0 2650 
3505 1 -0.006952 -0.00196066 -0.011235 4.2e-05 0 -0.011753 0 2650 
1487 1 -0.00528152 -0.00169352 -0.011274 0.000116 -0.0286894 0.0639382 0.0557328 2650 
1022 1 -0.002093 -0.00209066 -0.011454 0.000423 0 -0.011753 0 2650 
2939 1 -0.00970663 -0.00100001 -0.0115087 0.000116 -0.010233 0.0913682 -0.116316 2650 
440 1 -0.00061 -0.000658659 -0.011485 4.2e-05 0 -0.011753 0 2650 
369 1 -0.0112961 0.000399444 -0.0114239 0.000423 0.0722474 -0.0143206 -0.0326868 2650 
4215 1 -0.011184 0.00145034 -0.011524 0.000423 0 -0.011753 0 2650 
3643 1 -0.00608551 0.00112669 -0.0115919 0.000423 -0.0386014 -0.00662447 0.00484329 2650 
2279 1 -0.011345 0.00201334 -0.01145 0.000116 0 -0.011753 0 2650 
2579 1 -0.00872848 0.00165167 -0.0111799 0.000423 -0.000311164 -0.0069809 0.00202215 2650 
3535 1 -9.9e-05 0.00175334 -0.011488 0.000423 0 -0.011753 0 2650 
1063 1 -0.009531 0.00306734 -0.011683 0.000116 0 -0.011753 0 2650 
3894 1 -0.005583 0.00251234 -0.011098 0.000116 0 -0.011753 0 2650 
2922 1 -0.00312079 0.00287164 -0.0117838 0.000116 -0.0492521 -0.0166623 -0.0574868 2650 
3383 1 -0.011681 0.00406234 -0.011229 0.000116 0 -0.011753 0 2650 
1657 1 -0.00939417 0.00436469 -0.0115202 0.000656 -0.0116375 -0.0115716 0.0121112 2650 
3542 1 -0.00371498 0.00443029 -0.0112084 0.000423 -0.00895764 -0.00214669 0.0249707 2650 
2294 1 -0.004894 0.00474834 -0.011565 0.000116 0 -0.011753 0 2650 
878 1 -0.003908 0.00523134 -0.011202 4.2e-05 0 -0.011753 0 2650 
708 1 -0.00253623 0.00497475 -0.0114446 0.000423 -0.0031746 -0.00580761 -0.0104884 2650 
1215 1 -0.0106007 0.00622028 -0.0112594 0.000656 -0.0154882 -0.0117534 0.00230174 2650 
2512 1 -0.00989895 0.00577668 -0.0112572 0.000116 0.002514 -0.0160812 -0.0313025 2650 
1822 1 -0.008034 0.00580134 -0.011166 0.000116 0 -0.011753 0 2650 
1758 1 -0.00201 0.00606234 -0.01144 4.2e-05 0 -0.011753 0 2650 
4027 1 -0.003218 0.00719334 -0.011075 0.000116 0 -0.011753 0 2650 
2409 1 -0.002586 0.00713234 -0.011527 4.2e-05 0 -0.011753 0 2650 
2798 1 -0.008755 0.00823234 -0.01131 0.000423 0 -0.011753 0 2650 
949 1 -0.00508309 0.00888039 -0.0117526 0.000116 -0.0176455 0.0180502 -0.0430698 2650 
1617 1 -0.00424 0.00912134 -0.011492 0.000116 0 -0.011753 0 2650 
3684 1 -0.00463047 0.0098595 -0.0117277 0.000116 0.00413104 -0.0230128 -0.00941473 2650 
192 1 -0.00249366 0.00991316 -0.0117 0.000116 0.052188 -0.0401332 -0.079726 2650 
4314 1 -0.00944655 0.01088 -0.0117832 0.000423 -0.0535146 -0.0274014 -0.00338754 2650 
1663 1 -0.0100147 0.0111509 -0.0112018 0.000423 -0.0315871 -0.0104779 0.0262186 2650 
3145 1 -0.006381 0.0115843 -0.011273 0.000116 0 -0.011753 0 2650 
1578 1 -0.0106233 0.0125967 -0.0117233 0.000423 0.00763503 -0.000391995 0.0342555 2650 
1802 1 -0.00428083 0.0122277 -0.0110937 0.000423 0.00588614 -0.0012339 -0.0133873 2650 
1974 1 -0.00731094 0.0134174 -0.0117181 4.2e-05 -0.0917311 0.0247116 0.0427267 2650 
976 1 -0.005828 0.0129613 -0.011785 0.000116 0 -0.011753 0 2650 
911 1 -0.010502 0.015486 -0.0111825 0.000423 -0.0526708 0.0464536 0.0089698 2650 
2250 1 -0.00952459 0.0156674 -0.0118214 0.000423 -0.0795114 0.075595 0.0420437 2650 
3932 1 -0.00508451 0.0165375 -0.0114581 0.000116 -0.0403354 0.0602269 -0.135114 2650 
3784 1 -0.00984888 0.0178446 -0.0112273 0.000116 0.0423878 0.0666065 0.0301123 2650 
2206 1 -0.00471378 0.0553299 -0.0117403 0.000656 0.075662 -0.243847 -0.391592 2650 
2515 1 -0.0372593 -0.0042465 -0.0103941 0.000116 -5.7341 -0.109407 -1.59094 2650 
4373 1 -0.004239 -0.00269466 -0.010869 4.2e-05 0 -0.011753 0 2650 
3426 1 -0.00105469 -0.00297468 -0.0105085 0.000423 -0.00109119 -0.0119118 0.00171421 2650 
15 1 -0.001892 -0.00230366 -0.010407 0.000423 0 -0.011753 0 2650 
4097 1 -0.0097866 -0.00133085 -0.0110407 0.000423 -0.00354366 -0.0815325 -0.15252 2650 
3093 1 -0.00291829 -0.00101196 -0.0108586 0.000423 -0.000676928 -0.0109568 -0.00158381 2650 
2130 1 -0.000316 -0.00123966 -0.010491 0.000423 0 -0.011753 0 2650 
3673 1 -0.00271479 -0.000181868 -0.0108358 0.000423 0.000169124 -0.0108514 -9.18803e-05 2650 
3284 1 -0.001323 -0.000184659 -0.010635 4.2e-05 0 -0.011753 0 2650 
1193 1 -4.3e-05 -0.000673659 -0.010628 0.000116 0 -0.011753 0 2650 
509 1 -0.00942056 0.000501416 -0.0108344 0.000116 -0.0969329 -0.0471378 -0.104351 2650 