ITEM: TIMESTEP
9653412
ITEM: NUMBER OF ATOMS
4302
ITEM: BOX BOUNDS ff ff ff
-0.15 0.15
-0.15 0.06
-0.15 0.15
ITEM: ATOMS id type x y z radius vx vy vz density 
4036 1 -0.00207266 -0.0555042 -0.0688529 0.000116 0.825412 -0.0444082 -0.0248471 2650 
2064 1 -0.00443948 -0.0480146 -0.068741 0.000116 8.82908 0.716441 -0.570206 2650 
4132 1 -0.00767596 -0.059253 -0.0684551 0.000116 -0.618671 -0.648846 0.0693724 2650 
2350 1 -0.00560507 -0.059001 -0.0683486 0.000423 -0.540744 -0.62364 0.0443448 2650 
1290 1 -0.00649707 -0.0545409 -0.068577 0.000116 1.51734 0.208875 -0.143755 2650 
3266 1 -0.0073897 -0.0471541 -0.0684866 0.000116 -2.41971 0.138811 0.261086 2650 
838 1 -0.0118011 -0.0477064 -0.0678658 0.000116 11.878 -1.33594 -2.06544 2650 
2038 1 -0.0142187 -0.0456246 -0.0674007 0.000116 1.74176 -0.711376 -0.367436 2650 
3000 1 -0.017751 -0.0591695 -0.0662409 0.000423 3.1833 0.379319 -0.853048 2650 
4305 1 -0.0208873 -0.0570637 -0.0653197 0.000423 -1.29698 0.109435 0.414736 2650 
2201 1 -0.0223626 -0.0571873 -0.0645841 0.000656 0.275814 0.0292635 -0.095502 2650 
1856 1 -0.0242716 -0.0533557 -0.0644664 0.000116 0.356576 0.100478 -0.134251 2650 
3192 1 -0.0262143 -0.0619911 -0.063119 0.000656 0.933667 -0.372928 -0.387878 2650 
2833 1 -0.033707 -0.0497472 -0.0600738 0.000116 4.53422 0.904339 -2.54412 2650 
3174 1 -0.0337993 -0.0481341 -0.0601067 4.2e-05 2.64761 0.473806 -1.48881 2650 
2072 1 -0.0341556 -0.0484019 -0.0597913 0.000116 1.68861 -1.06062 -1.06006 2650 
51 1 -0.0340489 -0.0477967 -0.0595283 0.000423 0.741792 -0.0857254 -0.423996 2650 
1081 1 -0.035984 -0.0610101 -0.0577297 0.000116 1.27679 0.490746 -2.81041 2650 
4210 1 -0.0372707 -0.0619762 -0.057566 0.000423 0.998778 0.122726 -0.646652 2650 
1849 1 -0.037485 -0.0610888 -0.0571206 0.000116 0.785586 0.643595 -2.76557 2650 
3260 1 -0.0380797 -0.0575217 -0.0574017 0.000116 -0.556601 0.0317452 0.369244 2650 
1958 1 -0.0425606 -0.0508979 -0.0541629 0.000116 4.02064 -1.34313 -3.15937 2650 
902 1 -0.0433934 -0.0600555 -0.0531033 0.000423 0.102765 0.467117 -0.0839743 2650 
3013 1 -0.0437634 -0.0612514 -0.0527988 0.000423 -0.451279 0.20961 0.374053 2650 
3037 1 -0.0467024 -0.0516901 -0.050635 0.000116 -0.410243 -0.715293 0.37838 2650 
2386 1 -0.0493061 -0.0471775 -0.0481034 0.000116 3.8014 0.848005 -3.89645 2650 
3372 1 -0.0496276 -0.0604841 -0.0472114 0.000116 -3.00679 0.511976 2.88789 2650 
106 1 -0.0523899 -0.0513306 -0.0448387 4.2e-05 6.96217 -0.200009 -8.13466 2650 
849 1 -0.0539995 -0.0603676 -0.0427677 0.000116 3.10017 0.00842533 -3.91435 2650 
4025 1 -0.0596484 -0.0607674 -0.0344542 0.000116 3.52523 0.24445 -6.103 2650 
3054 1 -0.0596509 -0.0539415 -0.0344499 0.000116 1.09038 0.519615 -1.88801 2650 
3522 1 -0.0592564 -0.0478121 -0.03452 0.000423 1.4481 -0.564579 -2.48579 2650 
3891 1 -0.0614572 -0.0621135 -0.0304305 0.000423 3.97916 0.0393612 -8.03627 2650 
2829 1 -0.0622675 -0.0511538 -0.0294581 0.000116 -0.500684 0.362976 1.05833 2650 
1816 1 -0.0578198 -0.0621948 -0.0277898 0.000116 2.76195 -0.186323 -4.8043 2650 
2816 1 -0.0602743 -0.0612195 -0.0269306 0.000116 -0.062627 0.281568 -7.45033 2650 
3688 1 -0.0645685 -0.05517 -0.0239986 0.000116 -0.653163 -0.0595605 1.75734 2650 
827 1 -0.0651491 -0.0612264 -0.0223744 0.000116 -0.794597 -1.50207 2.31369 2650 
1712 1 -0.065822 -0.0478089 -0.0203097 0.000116 0.141609 -0.284393 -0.458944 2650 
1784 1 -0.0657337 -0.0623481 -0.0195468 0.000423 2.28323 0.073116 -7.67827 2650 
739 1 -0.0660554 -0.0472775 -0.0195374 0.000116 -0.825921 -0.534023 2.79242 2650 
850 1 -0.0661353 -0.0622839 -0.0190016 0.000116 2.25593 1.23765 -7.26375 2650 
3566 1 -0.0662131 -0.0609103 -0.0189962 0.000116 2.01029 0.248509 -7.00707 2650 
1177 1 -0.0676231 -0.0464436 -0.0123532 0.000116 0.140615 -1.73368 -1.8257 2650 
814 1 -0.0678945 -0.0514468 -0.00965855 0.000423 0.0641739 -0.745085 -0.451108 2650 
2848 1 -0.0688458 -0.0534026 -0.00393215 4.2e-05 0.013169 -0.0337204 -0.230568 2650 
940 1 -0.0688634 -0.0465766 -0.00168788 0.000116 0.0246941 -0.844419 -1.00749 2650 
816 1 -0.0685376 -0.0454138 -0.00235519 0.000423 -0.0422142 -1.54828 1.22846 2650 
2832 1 -0.0688837 -0.0614524 0.000239435 0.000116 -0.00126168 -0.954998 -0.362974 2650 
3613 1 -0.0688179 -0.0612257 -8.09035e-05 4.2e-05 -1.59126 0.305739 -12.6872 2650 
2821 1 -0.068881 -0.0519958 0.000650595 0.000116 0.00767928 -0.369976 0.813035 2650 
2123 1 -0.0685555 -0.0473785 0.00175606 0.000423 -0.00959142 -0.477646 -0.374443 2650 
636 1 -0.0677117 -0.0624995 0.0066712 0.000116 2.59762 0.0471539 -12.0038 2650 
1805 1 -0.0682345 -0.0581499 0.00685609 0.000423 -0.0488036 -0.658798 -0.485711 2650 
575 1 -0.0680508 -0.0451137 0.00848926 0.000423 -0.791254 0.579602 -6.34278 2650 
1903 1 -0.0678492 -0.0591567 0.00997227 0.000423 -0.625907 0.386468 -4.25854 2650 
392 1 -0.0673675 -0.0586894 0.0143749 0.000116 -0.260544 -1.95173 -1.22103 2650 
3549 1 -0.065251 -0.0595762 0.021101 0.000423 -0.401477 -0.109889 -1.2415 2650 
981 1 -0.0629405 -0.053126 0.0281728 4.2e-05 1.8546 2.10498 4.14333 2650 
3090 1 -0.0607573 -0.0577628 0.031804 0.000423 0.468293 0.0473079 0.894611 2650 
1278 1 -0.0601669 -0.0571927 0.0335406 0.000116 -1.50416 -1.69418 -2.69821 2650 
1231 1 -0.0600164 -0.0566717 0.033181 0.000423 0.550666 -0.246532 0.996022 2650 
3376 1 -0.0603054 -0.0560803 0.0332886 0.000116 -2.33552 1.74815 -4.26292 2650 
3828 1 -0.0592555 -0.057061 0.0352704 4.2e-05 -1.52338 -1.40972 -2.55933 2650 
2591 1 -0.0590399 -0.0529469 0.0354868 0.000116 -0.925999 -1.0633 -1.5406 2650 
844 1 -0.0540756 -0.0575454 0.0385804 0.000116 -6.14723 1.6044 -3.83277 2650 
1380 1 -0.0564649 -0.0516625 0.0394556 0.000116 -3.27387 -1.58449 -4.68523 2650 
2487 1 -0.0538613 -0.0453554 0.0429416 0.000116 -2.02835 2.32529 -2.54414 2650 
2042 1 -0.0529577 -0.062021 0.0440512 0.000116 -1.12449 0.6415 -1.35184 2650 
358 1 -0.0496853 -0.0561333 0.0472686 0.000423 -1.59317 0.39736 -1.67463 2650 
1690 1 -0.0496668 -0.0473507 0.0472881 0.000423 1.92808 -0.255181 2.02507 2650 
3265 1 -0.0489304 -0.0592343 0.0484855 0.000116 -6.05149 0.538793 -6.10703 2650 
213 1 -0.0478521 -0.0474467 0.0496527 4.2e-05 -7.43061 1.09808 -7.16116 2650 
420 1 -0.037587 -0.0551165 0.0577255 0.000116 -2.88294 1.5044 -1.87718 2650 
2083 1 -0.0363099 -0.0596937 0.0586242 4.2e-05 0.95497 -0.00594642 0.591476 2650 
1227 1 -0.0352285 -0.0510237 0.0588379 0.000423 -0.470195 -1.51434 -0.281524 2650 
394 1 -0.0325886 -0.0619708 0.0606877 0.000116 -0.315097 0.674438 -0.169204 2650 
4331 1 -0.0329387 -0.0570779 0.0604985 0.000116 0.851532 0.716705 0.463621 2650 
917 1 -0.0331041 -0.0488677 0.0600589 0.000423 0.00942295 -1.39131 0.00519386 2650 
4048 1 -0.0134188 -0.0570065 0.0676398 4.2e-05 -2.61196 0.233957 -0.518178 2650 
3040 1 -0.0144009 -0.0476933 0.067362 0.000116 -3.83771 -0.797204 -0.82044 2650 
601 1 -0.00611636 -0.062377 0.068336 0.000423 -8.14256 -6.80243e-05 -0.322586 2650 
3933 1 -0.0058698 -0.0534196 0.0686336 0.000116 0.868485 -0.108158 0.0742761 2650 
3248 1 -0.0103218 -0.0521752 0.0681065 0.000116 -12.867 -3.72471 -1.95003 2650 
1030 1 -0.000519387 -0.0466028 0.0685761 0.000423 1.91754 0.156525 0.0145232 2650 
538 1 -0.00196043 -0.0361472 -0.0688562 0.000116 -0.213413 -1.07823 0.00607617 2650 
1628 1 -0.00368355 -0.0307114 -0.0687856 0.000116 -1.4239 -0.0944428 0.0762514 2650 
293 1 -0.00219801 -0.016231 -0.068849 0.000116 0.734383 -0.138185 -0.0234449 2650 
1296 1 -0.00318408 -0.014011 -0.0688105 0.000116 0.539583 1.46765 -0.0249684 2650 
2167 1 -0.000587535 -0.0118985 -0.0688816 0.000116 -2.01991 0.181337 0.0172291 2650 
1938 1 -0.00471203 -0.00924657 -0.0687228 0.000116 -2.33561 -0.252171 0.160143 2650 
502 1 -0.0031885 -0.00835907 -0.0688103 0.000116 -1.06924 -0.222194 0.0495461 2650 
1047 1 -0.00303418 -0.00588572 -0.0688173 0.000116 -10.6729 5.27735 0.47057 2650 
4007 1 -0.000769748 -0.00326537 -0.0688798 0.000116 -0.840758 0.31277 0.00939566 2650 
2340 1 -0.00921249 -0.0343678 -0.0679564 0.000423 -1.46778 -0.241453 0.198979 2650 
2212 1 -0.00509923 -0.0326644 -0.0681557 0.000656 -1.67593 -0.159041 0.125389 2650 
3582 1 -0.0106989 -0.032161 -0.0680482 0.000116 -1.37158 0.00553177 0.215647 2650 
2588 1 -0.00905629 -0.0317546 -0.0682862 0.000116 -1.61073 -0.323891 0.213619 2650 
3743 1 -0.00119802 -0.0279535 -0.0685676 0.000423 -1.30278 -0.29511 0.0227624 2650 
2349 1 -0.00831375 -0.026483 -0.0680722 0.000423 -1.66619 -0.192784 0.203494 2650 
311 1 -0.0113126 -0.0227174 -0.0679489 0.000116 -1.39128 0.0195518 0.23163 2650 
2139 1 -0.00924673 -0.0216692 -0.0679518 0.000423 -1.33179 0.0649779 0.181226 2650 
1616 1 -0.00534162 -0.0216203 -0.0686767 0.000116 -0.399815 -0.302837 0.0310973 2650 
2112 1 -0.00523357 -0.0170359 -0.0683781 0.000423 -2.2478 -0.2549 0.172044 2650 
1634 1 -0.0101495 -0.0146569 -0.0681323 0.000116 -3.17162 -0.187694 0.472471 2650 
4106 1 -0.00107397 -0.0132498 -0.0685697 0.000423 -2.99817 0.089388 0.0469585 2650 
1119 1 -0.00683962 -0.0101628 -0.0682361 0.000423 -2.13033 -0.303519 0.213533 2650 
2775 1 -0.0052496 -0.00934167 -0.0683768 0.000423 -1.62545 0.469462 0.124793 2650 
3043 1 -0.00883526 -0.00717645 -0.0683152 0.000116 -3.04261 0.0357743 0.393504 2650 
1944 1 -0.00534223 -0.00746396 -0.0686767 0.000116 -2.65729 0.0912418 0.206705 2650 
1481 1 -0.00960807 -0.00669704 -0.0679017 0.000423 -2.2204 0.309997 0.314187 2650 
1612 1 -0.0112355 -0.00397586 -0.0679616 0.000116 -0.165805 -1.40659 0.0274111 2650 
2396 1 -0.00771679 -0.000221541 -0.0684505 0.000116 -2.33848 0.290443 0.263628 2650 
3516 1 -0.00722997 -0.000655981 -0.0679627 0.000656 -2.39413 0.000206501 0.254711 2650 
397 1 -0.00383243 -0.0417315 -0.0671779 0.000116 2.60027 -0.667927 0.396417 2650 
1012 1 -0.0100734 -0.0342156 -0.0678342 0.000423 -1.47447 -0.289056 0.218959 2650 
908 1 -0.0106847 -0.0336299 -0.0677406 0.000423 -1.4631 -0.277753 0.230774 2650 
2143 1 -0.0137678 -0.0302625 -0.0671818 0.000423 -1.55902 -0.196215 0.319495 2650 
336 1 -0.011843 -0.0276629 -0.0673123 0.000656 -1.82381 -0.0397604 0.320882 2650 
3431 1 -0.0097421 -0.027598 -0.0678826 0.000423 -1.75452 -0.189566 0.251799 2650 
2865 1 -0.0124462 -0.0255384 -0.0672034 0.000656 -1.86869 -0.171777 0.346086 2650 
1239 1 -0.0113408 -0.0246706 -0.0676338 0.000423 -0.821805 -0.46043 0.137799 2650 
3881 1 -0.0107463 -0.0232639 -0.0677308 0.000423 -1.37733 -0.0624937 0.21853 2650 
2091 1 -0.0105874 -0.0216205 -0.0675211 0.000656 -0.089899 -0.309611 0.0140984 2650 
4101 1 -0.0099279 -0.00480407 -0.0678556 0.000423 -2.21277 0.0756089 0.323749 2650 
2421 1 -0.0105033 -0.00378407 -0.0675343 0.000656 -2.36876 0.0617212 0.368404 2650 
1996 1 -0.0135388 -0.00278355 -0.0672283 0.000423 -1.83245 -0.174849 0.369029 2650 
50 1 -0.0129592 -0.00135834 -0.0673425 0.000423 -1.58676 0.0206386 0.305351 2650 
3508 1 -0.0151194 -0.000525082 -0.0672801 4.2e-05 -2.72761 -0.0717728 0.612957 2650 
2010 1 -0.0123081 -0.000527985 -0.0674645 0.000423 -1.62464 -0.0235091 0.296395 2650 
3357 1 -0.0157347 -0.0397289 -0.067063 0.000116 -0.915976 -1.10033 0.214911 2650 
2012 1 -0.0147902 -0.0319288 -0.0669642 0.000423 -2.14895 -0.566603 0.474633 2650 
2131 1 -0.0174155 -0.0299801 -0.0663299 0.000423 -1.33418 0.389337 0.3503 2650 
2296 1 -0.0162943 -0.0241394 -0.0669292 0.000116 -2.30638 1.29787 0.561502 2650 
2429 1 -0.0138455 -0.0173941 -0.0669291 0.000656 -1.61067 0.54385 0.333196 2650 
2703 1 -0.016996 -0.012336 -0.0667545 0.000116 -2.45099 -1.36998 0.624035 2650 
158 1 -0.017301 -0.0109005 -0.0663598 0.000423 -2.25897 0.161378 0.588948 2650 
1210 1 -0.0170879 -0.0108742 -0.0668073 4.2e-05 -3.0992 0.190064 0.792708 2650 
2905 1 -0.0165253 -0.00679515 -0.0665572 0.000423 -2.01312 0.233479 0.499833 2650 
1968 1 -0.0167612 -0.00544598 -0.0668138 0.000116 -1.62199 -0.118724 0.406898 2650 
4006 1 -0.0186421 -0.0013863 -0.0663136 0.000116 -2.68175 0.223392 0.753896 2650 
4362 1 -0.0158317 -0.00151931 -0.0670401 0.000116 -2.04401 0.227721 0.482696 2650 
1787 1 -0.0148174 -0.00149393 -0.0669582 0.000423 -2.0278 0.50571 0.448737 2650 
2148 1 -0.0102669 -0.000145489 -0.0668529 0.000116 0.586716 -0.0127392 -0.542777 2650 
1323 1 -0.0188638 -0.0371177 -0.0656913 0.000656 0.183961 -0.535015 -0.052826 2650 
3963 1 -0.0186071 -0.0123608 -0.0660055 0.000423 -2.13345 -0.196308 0.601423 2650 
3066 1 -0.0202694 -0.0105509 -0.0659118 4.2e-05 -1.9762 -0.331194 0.607727 2650 
4212 1 -0.0181744 -0.0109123 -0.066126 0.000423 -2.27367 0.221361 0.624906 2650 
1528 1 -0.019919 -0.00873893 -0.0659394 0.000116 -0.85331 0.60292 0.135624 2650 
4249 1 -0.0209889 -0.00817927 -0.0656086 0.000116 -1.31585 0.588014 0.420955 2650 
2192 1 -0.0200716 -0.00793642 -0.0659723 4.2e-05 -1.44907 0.737057 0.44087 2650 
3693 1 -0.0194908 -0.00708415 -0.0660692 0.000116 -3.08697 -0.206425 0.910671 2650 
3479 1 -0.0195404 -0.00544053 -0.0660545 0.000116 -0.573208 0.763451 0.169567 2650 
2023 1 -0.0191477 -0.0045224 -0.0658507 0.000423 -1.38813 -0.0185326 0.40363 2650 
505 1 -0.0187343 -0.00337661 -0.0662876 0.000116 -1.96812 0.134673 0.556231 2650 
2877 1 -0.0191598 -0.00276415 -0.0658472 0.000423 -2.1875 -0.125894 0.636507 2650 
3692 1 -0.0206874 -0.000325054 -0.0657043 0.000116 -2.59369 1.53288 0.81664 2650 
95 1 -0.0217404 -0.00899295 -0.0653634 0.000116 1.67619 -1.06746 -0.557515 2650 
378 1 -0.0204987 -0.00900599 -0.0654427 0.000423 -1.09798 0.452413 0.343921 2650 
3603 1 -0.0216761 -0.00867505 -0.0653848 0.000116 -2.09981 -0.424273 0.696121 2650 
3986 1 -0.0207029 -0.00564218 -0.0653784 0.000423 -2.03659 -0.122233 0.64491 2650 
3337 1 -0.0224728 -0.00375416 -0.0647914 0.000423 -2.07497 -0.074597 0.719701 2650 
379 1 -0.0212507 -0.00112685 -0.0652024 0.000423 -1.39393 -0.0514927 0.45431 2650 
1568 1 -0.0220097 -0.000423058 -0.0649501 0.000423 -1.38962 0.000321279 0.470901 2650 
1768 1 -0.0225385 -0.0418025 -0.0645056 0.000656 -1.21826 -0.521861 0.223465 2650 
286 1 -0.0231429 -0.021025 -0.0642499 0.000116 -0.746534 -0.634979 1.55706 2650 
2998 1 -0.0247626 -0.0144339 -0.0639513 0.000423 -1.75147 -0.22341 0.678186 2650 
3390 1 -0.0250826 -0.000833508 -0.0641552 0.000116 -1.93074 0.254128 0.754857 2650 
3418 1 -0.0249935 -0.0282701 -0.0638613 0.000423 -1.03366 0.184983 0.404546 2650 
1838 1 -0.0258981 -0.0245233 -0.0638303 0.000116 -0.110365 0.779852 0.0447788 2650 
2837 1 -0.0274472 -0.0199566 -0.0631797 0.000116 -2.03255 -0.354552 0.883002 2650 
1404 1 -0.0266737 -0.0087167 -0.0635101 0.000116 -3.07876 0.18738 1.29306 2650 
3219 1 -0.0262535 -0.00497727 -0.0633538 0.000423 -1.73112 0.23945 0.717366 2650 
3957 1 -0.0251021 -0.00484414 -0.0635695 0.000656 -1.67658 0.130586 0.662043 2650 
4094 1 -0.0255415 -0.00365668 -0.0636442 0.000423 -1.98991 -0.0343589 0.798587 2650 
2532 1 -0.0254089 -0.00257154 -0.0634475 0.000656 -2.07383 -0.00359027 0.830508 2650 
4353 1 -0.0283125 -0.0330641 -0.0627968 0.000116 9.29699 0.979628 -4.19163 2650 
1008 1 -0.0280379 -0.0167543 -0.0625845 0.000423 -2.15861 -0.155294 0.967059 2650 
8 1 -0.0278162 -0.0104244 -0.0624297 0.000656 -2.13063 -0.0778789 0.949322 2650 
1587 1 -0.0278805 -0.000451824 -0.0626548 0.000423 -1.87311 -0.0211446 0.833506 2650 
991 1 -0.0268436 -0.000750808 -0.062854 0.000656 -1.85955 -0.0505124 0.794176 2650 
1050 1 -0.0302265 -0.030179 -0.0618981 0.000116 -1.23385 -0.499473 0.602521 2650 
3331 1 -0.029874 -0.0295015 -0.0617292 0.000423 -1.51171 -0.348715 0.731599 2650 
1136 1 -0.0297825 -0.0285613 -0.0617734 0.000423 -1.11945 -0.198677 0.539715 2650 
2353 1 -0.0300697 -0.025929 -0.0616341 0.000423 -1.45925 0.128144 0.711931 2650 
1419 1 -0.0294716 -0.0139229 -0.0622611 0.000116 0.0297877 -1.49131 -0.0141001 2650 
4254 1 -0.0300899 -0.00824521 -0.0619647 0.000116 -1.51084 -0.228848 0.733659 2650 
4325 1 -0.0301436 -0.000544691 -0.061598 0.000423 -1.81355 -0.0291493 0.887477 2650 
2275 1 -0.0292721 -0.000774132 -0.0623552 0.000116 -3.0243 -0.81236 1.41984 2650 
3753 1 -0.0310072 -0.0389999 -0.0611678 0.000423 1.71902 0.0921289 -0.871405 2650 
3440 1 -0.0308201 -0.0261905 -0.0612623 0.000423 -1.45219 0.0906461 0.730575 2650 
1649 1 -0.0320242 -0.0068152 -0.0610709 4.2e-05 -1.69585 -0.0915526 0.889268 2650 
1312 1 -0.0335863 -0.03153 -0.060226 4.2e-05 -0.0612417 -0.727273 0.0341528 2650 
353 1 -0.0326702 -0.00406805 -0.060296 0.000423 -1.83177 0.125817 0.992508 2650 
2728 1 -0.0344846 -0.0167579 -0.0596308 0.000116 -1.64907 -0.625395 0.953659 2650 
3426 1 -0.0345962 -0.0122886 -0.0592119 0.000423 -0.647273 0.070501 0.378187 2650 
1987 1 -0.0332947 -0.0100636 -0.059688 0.000656 -0.663739 0.712272 0.370241 2650 
1056 1 -0.0351735 -0.00046057 -0.0592271 0.000116 -1.99197 -0.000293316 1.18298 2650 
3785 1 -0.03757 -0.00294989 -0.0577366 0.000116 -0.716768 0.718143 0.46641 2650 
3543 1 -0.0380915 -0.0161345 -0.0570262 0.000423 1.27077 -0.35624 -0.848827 2650 
693 1 -0.0379663 -0.00869399 -0.0571096 0.000423 -1.15144 -0.128549 0.765471 2650 
2626 1 -0.0379273 -0.00151251 -0.0575025 0.000116 -1.13376 0.0595886 0.747799 2650 
2691 1 -0.0392795 -0.00610773 -0.0562145 0.000423 -1.06284 -0.288891 0.742653 2650 
1161 1 -0.0390501 -0.000191192 -0.056746 0.000116 -1.81183 0.105679 1.24682 2650 
1336 1 -0.0403172 -0.0310898 -0.0554749 0.000423 -1.15967 -0.16982 0.842808 2650 
333 1 -0.0394907 -0.0228956 -0.0557824 0.000656 -1.33582 -0.393382 0.945682 2650 
3181 1 -0.0412475 -0.00960909 -0.0552617 4.2e-05 -0.57114 -0.61009 0.426301 2650 
2476 1 -0.0402878 -0.00923708 -0.0558741 0.000116 -1.77624 -0.593172 1.28075 2650 
197 1 -0.0409532 -0.00747101 -0.0553883 0.000116 -0.895209 -0.178393 0.661903 2650 
542 1 -0.0404012 -0.00399561 -0.0558834 4.2e-05 3.67102 -0.266302 -2.65398 2650 
295 1 -0.0408821 -0.00375806 -0.0554407 0.000116 -1.19248 -0.0620151 0.879335 2650 
886 1 -0.0411787 -0.0179808 -0.0545483 0.000656 -1.87165 -0.290715 1.41291 2650 
3585 1 -0.0411585 -0.00711559 -0.0552358 0.000116 -0.975439 0.224016 0.711007 2650 
2028 1 -0.041241 -0.00742825 -0.0547916 0.000423 -1.09454 0.297094 0.823848 2650 
3850 1 -0.0407839 -0.00323242 -0.0551328 0.000423 -1.36637 -0.148177 1.01076 2650 
3691 1 -0.0414589 -0.00193023 -0.0550107 0.000116 -1.17518 -0.023977 0.885677 2650 
1249 1 -0.0410764 -0.00230798 -0.0549152 0.000423 -1.29339 -0.059108 0.967455 2650 
1443 1 -0.0412396 -0.00137183 -0.0547928 0.000423 -1.40738 -0.0158583 1.05926 2650 
1458 1 -0.0414473 -0.00046092 -0.0546358 0.000423 -1.39502 -0.0186573 1.05828 2650 
3887 1 -0.0419317 -0.0374655 -0.0542649 0.000423 0.326967 0.114476 -0.252655 2650 
1046 1 -0.0424957 -0.0123801 -0.0542138 0.000116 -2.09262 -0.832609 1.64031 2650 
2130 1 -0.0419004 -0.0124017 -0.0542891 0.000423 -2.10336 -0.769189 1.62338 2650 
437 1 -0.0431917 -0.00339718 -0.0537558 4.2e-05 -0.965269 0.217443 0.775574 2650 
34 1 -0.042426 -0.0018703 -0.0538793 0.000423 -1.34161 -0.0430476 1.05642 2650 
1436 1 -0.0421932 -0.000739235 -0.0537674 0.000656 -1.37915 -0.0275079 1.08227 2650 
42 1 -0.0431057 -0.00222248 -0.0533371 0.000423 -1.34904 -0.0111463 1.09026 2650 
245 1 -0.0434016 -0.00116403 -0.0530966 0.000423 -1.39557 -0.0563384 1.14075 2650 
3096 1 -0.0443 -0.0333747 -0.0523497 0.000423 4.56289 0.949935 -3.86109 2650 
3399 1 -0.0443347 -0.0257029 -0.0528171 4.2e-05 -0.415754 0.16725 0.348984 2650 
555 1 -0.043515 -0.00421894 -0.0527034 0.000656 -1.1614 -0.022955 0.958921 2650 
1135 1 -0.0439511 -0.00043824 -0.0526427 0.000423 -1.37638 -0.00354114 1.14914 2650 
1655 1 -0.0448879 -0.0337775 -0.0515396 0.000656 4.56656 0.713758 -3.97622 2650 
429 1 -0.0457933 -0.0110234 -0.0514587 0.000116 -2.39437 -0.208494 2.13076 2650 
1447 1 -0.0448721 -0.00831327 -0.0518599 0.000423 -1.34387 -0.388293 1.16279 2650 
2855 1 -0.0492857 -0.0429692 -0.04823 4.2e-05 7.6464 -0.89685 -7.81378 2650 
1107 1 -0.047725 -0.0371664 -0.0489236 0.000656 -0.669348 -0.542355 0.652951 2650 
3514 1 -0.049808 -0.0258632 -0.0468013 0.000656 -0.686395 -0.069284 0.730491 2650 
269 1 -0.0517248 -0.0222855 -0.0450278 0.000423 -1.93436 -0.567563 2.22205 2650 
4097 1 -0.0515532 -0.00874015 -0.0452241 0.000423 -2.08872 -0.258782 2.38104 2650 
2081 1 -0.0524108 -0.0434852 -0.0448142 4.2e-05 -1.03066 0.513111 1.20538 2650 
2563 1 -0.0521331 -0.00631768 -0.0445543 0.000423 -1.5395 -0.0263715 1.80137 2650 
1638 1 -0.0526582 -0.00134568 -0.0444087 0.000116 -1.32823 0.0759678 1.57497 2650 
3840 1 -0.0524607 -0.0215869 -0.0438072 0.000656 -1.14594 0.250979 1.3723 2650 
2779 1 -0.0529639 -0.0131604 -0.0435634 0.000423 -1.24391 -0.287632 1.51234 2650 
715 1 -0.0529809 -0.00898455 -0.0435429 0.000423 -1.62579 -0.241177 1.97818 2650 
4084 1 -0.0529192 -0.000564806 -0.0436178 0.000423 -1.36867 -0.0398517 1.66053 2650 
2939 1 -0.0447922 -0.00428546 -0.0432173 0.000116 -6.866 -0.113136 -6.62062 2650 
1407 1 -0.0544352 -0.0234081 -0.0422117 0.000116 -1.0557 -0.255627 1.36141 2650 
1466 1 -0.0545963 -0.0101957 -0.0414994 0.000423 -1.65803 -0.226808 2.18129 2650 
1760 1 -0.0549786 -0.000725422 -0.041624 4.2e-05 -1.00141 0.670077 1.3227 2650 
2183 1 -0.055089 -0.0282561 -0.0404042 0.000116 -3.47241 -2.8208 1.92965 2650 
223 1 -0.0550913 -0.00865361 -0.0404493 0.000656 -1.0443 -0.35348 1.42232 2650 
1946 1 -0.0560265 -0.0127863 -0.0400756 0.000116 -1.68897 -0.317033 2.36121 2650 
1829 1 -0.0563357 -0.00977377 -0.0396397 0.000116 -1.92281 -0.260407 2.73269 2650 
1606 1 -0.0566726 -0.00354769 -0.0391566 0.000116 -0.146391 -0.152295 0.211877 2650 
2367 1 -0.0568493 -0.0203187 -0.0381103 0.000116 6.5139 -0.0422377 -7.93832 2650 
322 1 -0.0383739 -0.02251 -0.037846 4.2e-05 5.55015 -0.752116 -4.22539 2650 
577 1 -0.0578226 -0.0381235 -0.0368713 0.000423 -0.84416 -0.444484 1.32383 2650 
3143 1 -0.0581988 -0.0238124 -0.03685 0.000116 -0.510284 -0.654736 0.805914 2650 
2246 1 -0.058041 -0.00436111 -0.0365266 0.000423 -0.732969 0.517679 1.16469 2650 
1170 1 -0.0586965 -0.0119402 -0.036052 0.000116 0.0291399 0.530169 -0.0474428 2650 
56 1 -0.0591009 -0.0058403 -0.0347855 0.000423 -0.807313 0.459686 1.37163 2650 
2238 1 -0.0593938 -0.0019487 -0.034283 0.000423 -0.647988 -0.0754519 1.12261 2650 
2711 1 -0.0614561 -0.0183725 -0.0311155 0.000116 0.683486 0.39493 -1.34995 2650 
817 1 -0.0613594 -0.0167439 -0.0306264 0.000423 -0.916258 -0.154531 1.8357 2650 
287 1 -0.0619753 -0.005069 -0.030068 0.000116 -0.711599 -0.655891 1.46673 2650 
3425 1 -0.0616277 -0.000641839 -0.0300829 0.000423 -1.07088 0.0214276 2.19374 2650 
3602 1 -0.0617205 -0.000122892 -0.0299436 0.000116 -1.51027 -0.0543375 2.50073 2650 
2765 1 -0.0629014 -0.0187252 -0.0273195 0.000423 0.147302 -0.485972 -0.339154 2650 
3348 1 -0.0633491 -0.00131673 -0.0270538 0.000116 -0.303362 -0.187155 0.710353 2650 
1751 1 -0.0636527 -0.00709074 -0.0265244 4.2e-05 -0.431884 -0.200301 1.03643 2650 
2480 1 -0.0640148 -0.0239931 -0.0254387 0.000116 -0.946603 -0.873075 2.38206 2650 
843 1 -0.0639784 -0.0216243 -0.0255301 0.000116 1.87735 1.62565 -4.70465 2650 
1961 1 -0.0642909 -0.0298554 -0.0247325 0.000116 -0.535197 -0.766995 1.39122 2650 
1914 1 -0.0638862 -0.0147209 -0.0249299 0.000423 -0.272075 0.631261 0.697229 2650 
2966 1 -0.0637597 -0.0115751 -0.0246153 0.000656 -0.90473 -0.0532435 2.34348 2650 
3649 1 -0.0638362 -0.00650493 -0.0250578 0.000423 -0.746253 -0.245117 1.90112 2650 
3314 1 -0.0641162 -0.00374722 -0.0243322 0.000423 -0.19794 0.0936818 0.521579 2650 
1572 1 -0.0644903 -0.0214937 -0.0233229 0.000423 -0.960402 0.126724 2.65561 2650 
3058 1 -0.0648083 -0.00712422 -0.0233432 0.000116 -1.08099 -0.348931 3.00117 2650 
2898 1 -0.0643838 -0.0041253 -0.0236152 0.000423 -0.191356 0.0821737 0.521706 2650 
163 1 -0.064593 -0.000777394 -0.0230368 0.000423 -0.555126 -0.0403084 1.55652 2650 
631 1 -0.0651252 -0.00350268 -0.0224441 0.000116 -0.435868 -0.888416 1.26474 2650 
1461 1 -0.0648429 -0.00120373 -0.0223236 0.000423 -0.534413 -0.082626 1.5523 2650 
19 1 -0.0651767 -0.0269827 -0.0213293 0.000423 0.0591827 0.186098 -0.180847 2650 
229 1 -0.0651256 -0.0110793 -0.0207331 0.000656 -0.817172 0.0226143 2.56685 2650 
82 1 -0.0661327 -0.00981967 -0.0192739 0.000116 -0.503993 -0.0504724 1.7293 2650 
21 1 -0.0657473 -0.00172143 -0.0194998 0.000423 -0.519932 -0.0586704 1.75305 2650 
1593 1 -0.0661048 -0.0285319 -0.0182513 0.000423 -0.548946 0.00411476 1.98824 2650 
1218 1 -0.0659185 -0.0300107 -0.0180541 0.000656 -0.529467 -0.134456 1.93317 2650 
3198 1 -0.066318 -0.0282986 -0.0174605 0.000423 -0.528166 -0.0191544 2.00607 2650 
1055 1 -0.066512 -0.00996662 -0.0179215 0.000116 -0.510531 -0.0924187 1.89473 2650 
2172 1 -0.000332854 -0.00108565 -0.0166941 0.000116 0.0682862 0.00746542 -0.00852403 2650 
2282 1 -0.0667898 -0.000358709 -0.0166807 0.000116 0.729963 -0.46139 -1.33524 2650 
606 1 -0.000183 0.00170869 -0.016592 0.000116 0 -0.011753 0 2650 
2520 1 -0.00032033 0.00488439 -0.0168492 4.2e-05 0.00318265 0.000380138 0.00682554 2650 
390 1 -0.0670357 -0.0304565 -0.0158505 0.000116 -0.585701 -0.209036 2.47708 2650 
419 1 -0.0669637 -0.0026851 -0.0161518 0.000116 -0.110433 -0.361541 0.457846 2650 
2013 1 -0.00294508 0.00302107 -0.015923 0.000423 -0.00154235 0.00221798 0.00156406 2650 
2301 1 -0.00429774 0.00364404 -0.0162189 4.2e-05 -0.00116259 -0.0070103 0.00459775 2650 
1679 1 -0.00410492 0.00436869 -0.0158624 0.000423 -0.00453172 0.0157125 0.00260684 2650 
2283 1 -0.00352597 0.00415526 -0.0164075 0.000116 -0.00010552 0.00956354 0.000789399 2650 
4227 1 -0.000496437 0.00437315 -0.0161199 0.000116 0.00143204 -0.0228975 -0.0290312 2650 
1611 1 -0.00364215 0.00486861 -0.0159644 0.000116 0.0513704 -0.0152435 0.0155029 2650 
978 1 -0.00282686 0.00638752 -0.0163667 0.000116 0.0180122 -0.00353228 -0.00159853 2650 
3934 1 -0.001977 0.00647069 -0.016218 0.000116 0 -0.011753 0 2650 
3177 1 -5.45366e-05 0.00861975 -0.0161479 4.2e-05 0.00917698 -0.00185525 -0.00666376 2650 
1483 1 -0.000447875 0.0100608 -0.0162861 0.000423 -0.00134867 0.0112238 -0.0085204 2650 
3007 1 -0.0026219 0.0110127 -0.0159282 0.000423 -0.00754521 0.0118776 -0.00214285 2650 
371 1 -0.000451723 0.0113181 -0.0164282 0.000423 0.00531915 0.0198137 0.0114896 2650 
70 1 -0.00492485 0.0118797 -0.0158018 0.000116 0.0560864 0.0328811 0.00597028 2650 
188 1 -0.00253552 0.0125793 -0.0163051 0.000116 -0.0148612 0.0228045 0.00418427 2650 
2182 1 -0.00143652 0.0123123 -0.0159109 0.000116 -0.00770269 0.0448602 -0.0445042 2650 
2713 1 -0.000718654 0.0143809 -0.0161278 0.000116 0.00037122 0.035974 0.00535071 2650 
4234 1 -0.00502158 0.0318484 -0.0158641 0.000116 0.00512064 0.0508026 0.0366661 2650 
66 1 -0.00462994 0.0341803 -0.0160311 0.000116 -0.217432 -0.0137213 0.0406838 2650 
2098 1 -0.0665202 -0.0317125 -0.0156926 0.000656 -0.363229 -0.296584 1.53971 2650 
2019 1 -0.0668632 -0.0261046 -0.01524 0.000423 -0.403715 0.0395594 1.77124 2650 
1763 1 -0.00394426 -0.00238094 -0.0152156 0.000656 -0.0890582 0.0217677 -0.0881811 2650 
1964 1 -0.067191 -0.0017488 -0.0151785 0.000116 -0.255525 -0.155162 1.13114 2650 
29 1 -0.0668279 -0.00137786 -0.0153942 0.000423 -0.273725 -0.0538282 1.18827 2650 
30 1 -0.00167269 -0.00143796 -0.0157361 0.000423 -0.0139928 -0.0214008 0.00726417 2650 
3599 1 -0.00134337 -0.00143154 -0.0152661 0.000116 0.0260231 -0.00977207 -0.00117121 2650 
2399 1 -0.002418 0.00192269 -0.015541 0.000116 0 -0.011753 0 2650 
3637 1 -0.00513378 0.00372873 -0.015569 0.000423 -0.00704251 0.0124689 0.006236 2650 
2344 1 -0.000139567 0.00471399 -0.0151454 0.000423 0.0113166 5.02216e-06 -0.0390029 2650 
3365 1 -0.0022034 0.00476445 -0.0150118 0.000116 0.0120999 0.0333262 -0.0498495 2650 
2438 1 -0.00603775 0.00725626 -0.0151015 0.000423 -0.00472103 -0.000373669 -0.00125399 2650 
2313 1 -0.00361478 0.00783792 -0.0155512 0.000656 0.00500542 -0.00556791 -0.044623 2650 
3830 1 -0.006879 0.00802269 -0.015411 4.2e-05 0 -0.011753 0 2650 
938 1 -0.00147903 0.00990836 -0.0157676 0.000116 -0.00119823 0.000558801 -0.00633771 2650 
2781 1 -0.00611766 0.0108513 -0.0152184 0.000423 -0.00287998 0.011096 -0.0317373 2650 
2969 1 -0.00236529 0.0103679 -0.0150477 0.000656 -0.00667616 0.014076 0.00443217 2650 
2793 1 -0.00107469 0.0120383 -0.015219 0.000423 0.000157206 0.0547174 -0.00166293 2650 
3644 1 -0.0011685 0.0130545 -0.0152876 0.000423 -0.000399523 0.00418678 0.0157329 2650 
2924 1 -0.0070282 0.0153758 -0.0151136 0.000116 -0.0500795 0.0331408 0.0243033 2650 
2466 1 -0.00549957 0.0213366 -0.0152365 0.000423 0.0618857 0.0331724 -0.00268308 2650 
2585 1 -0.000908643 0.0243534 -0.01528 0.000116 -0.0221426 0.0759057 0.0070692 2650 
2863 1 -0.0030507 0.0521094 -0.0153388 0.000656 0.0828395 0.112062 0.0238951 2650 
2232 1 -0.0670508 -0.0324481 -0.0143924 0.000423 -0.230986 0.257071 1.07611 2650 
4244 1 -0.00147773 -0.0027569 -0.0146986 0.000116 -0.0436806 -0.00994679 0.0125723 2650 
1053 1 -0.007469 -0.00191931 -0.014946 0.000116 0 -0.011753 0 2650 
736 1 -0.00732187 -0.00103562 -0.0147854 0.000116 -0.0307431 -0.0170391 0.0144389 2650 
509 1 -0.00763604 -0.000494619 -0.0146684 0.000116 -0.00480979 -0.0076817 0.0108723 2650 
857 1 -0.00485249 0.00257023 -0.0148735 0.000116 -0.0623021 0.0193526 0.00200378 2650 
2474 1 -0.000941276 0.00251693 -0.0145682 0.000423 0.0307748 -0.0136667 -0.043701 2650 
889 1 -0.00224533 0.00403037 -0.0145318 0.000656 0.0239239 0.0130736 -0.0545072 2650 
4300 1 -0.000269196 0.00403934 -0.0144678 0.000423 0.0101839 0.00179298 -0.0226263 2650 
1192 1 -0.0071728 0.0058157 -0.0148752 0.000116 -0.0160738 0.0171838 -0.0228619 2650 
581 1 -0.00561809 0.00806308 -0.0145186 0.000423 0.00044719 0.0010883 0.00185987 2650 
233 1 -0.00377932 0.0089637 -0.0147858 0.000423 0.0114684 -0.00558491 0.0116559 2650 
2726 1 -0.000238322 0.00870931 -0.0144457 0.000116 -0.00741369 0.00988612 -0.041436 2650 
289 1 -0.00320285 0.00973813 -0.0146275 0.000116 -0.00850769 0.000708308 0.0302001 2650 
86 1 -0.00419186 0.0103721 -0.0149683 0.000116 -0.0196067 0.0126222 0.000798653 2650 
3500 1 -0.00338893 0.010744 -0.0147409 4.2e-05 -0.0484689 0.00233787 0.0298831 2650 
3150 1 -0.00144198 0.0104699 -0.0147574 0.000116 -0.0182263 -0.0087302 -0.0269448 2650 
1228 1 -0.0018743 0.0123244 -0.0149141 0.000423 -0.0165199 0.0339339 0.00467854 2650 
1839 1 -0.0041064 0.0154083 -0.0144527 0.000116 -0.0676852 0.0211351 0.0188737 2650 
93 1 -0.00835126 0.0182116 -0.0146543 0.000116 0.0573325 0.04651 -0.0562898 2650 