ITEM: TIMESTEP
11046354
ITEM: NUMBER OF ATOMS
4283
ITEM: BOX BOUNDS ff ff ff
-0.15 0.15
-0.15 0.06
-0.15 0.15
ITEM: ATOMS id type x y z radius vx vy vz density 
1380 1 -0.00236678 -0.0593483 -0.0688435 0.000116 3.43876 -1.23672 -0.118222 2650 
1961 1 -0.0108125 -0.0596275 -0.0680303 0.000116 7.00744 0.74089 -1.11374 2650 
4036 1 -0.00989312 -0.056058 -0.06817 0.000116 -1.11809 -0.400949 0.162262 2650 
3096 1 -0.00728342 -0.056488 -0.0681902 0.000423 0.256453 -0.878547 -0.0273919 2650 
4338 1 -0.00850882 -0.0506288 -0.0683567 0.000116 14.1994 -0.571213 -1.76749 2650 
1699 1 -0.0130712 -0.0623608 -0.0672264 0.000423 1.78678 0.0053101 0.212966 2650 
3265 1 -0.0143059 -0.0503677 -0.0673822 0.000116 2.32411 0.947464 -0.493432 2650 
1943 1 -0.021213 -0.0584663 -0.0655365 0.000116 3.40888 0.109228 -1.10339 2650 
1832 1 -0.01948 -0.0591142 -0.0660723 0.000116 3.22823 -2.87591 -0.951774 2650 
3887 1 -0.0187765 -0.0462703 -0.0659575 0.000423 0.995469 -0.506784 -0.283385 2650 
1856 1 -0.0163038 -0.0626142 -0.0631814 0.000116 5.96271 0.0873467 0.761631 2650 
286 1 -0.0359837 -0.0522732 -0.0587383 0.000116 1.51687 -0.82276 -0.929251 2650 
4305 1 -0.0346558 -0.0480294 -0.059177 0.000423 -0.286962 0.105892 0.168053 2650 
3966 1 -0.0361641 -0.0598089 -0.0582675 0.000423 -0.579184 0.218096 0.359474 2650 
3143 1 -0.0433062 -0.0582081 -0.0535686 0.000116 1.69869 -0.838122 -1.37326 2650 
4306 1 -0.048674 -0.0579008 -0.0483097 0.000423 7.90426 3.85469 -7.96431 2650 
1046 1 -0.0490265 -0.0567971 -0.0480175 0.000116 5.93846 8.45616 -3.93002 2650 
1012 1 -0.049301 -0.046845 -0.0476693 0.000423 -0.20651 -0.31785 0.213579 2650 
1805 1 -0.052186 -0.0456506 -0.0444924 0.000423 -0.0357421 0.561063 0.0419227 2650 
2037 1 -0.0535832 -0.0564239 -0.0432883 0.000116 5.52066 0.975838 -6.83359 2650 
1768 1 -0.0535178 -0.0618587 -0.0424272 0.000656 0.306774 0.539475 -0.113316 2650 
1958 1 -0.0528426 -0.0585217 -0.0414958 0.000116 3.26476 3.81168 -3.96299 2650 
3260 1 -0.0588143 -0.060092 -0.0358595 0.000116 -0.347715 -0.145151 0.570299 2650 
2100 1 -0.0583083 -0.0454097 -0.0356559 0.000656 -0.702912 -0.335302 1.14947 2650 
908 1 -0.0590727 -0.0456457 -0.0348334 0.000423 -0.695413 -0.322496 1.17932 2650 
3013 1 -0.0593521 -0.0552042 -0.0343552 0.000423 -0.248203 0.0267998 0.428796 2650 
319 1 -0.0597801 -0.0526739 -0.0342253 0.000116 3.49867 0.638432 -6.11101 2650 
3812 1 -0.0618918 -0.0460495 -0.0302395 0.000116 -0.538722 -0.255301 1.10261 2650 
2042 1 -0.0621274 -0.0521024 -0.0297524 0.000116 0.742571 0.328701 -1.5506 2650 
1231 1 -0.0631343 -0.0586377 -0.0267774 0.000423 2.03653 0.591555 -4.80163 2650 
2198 1 -0.0548308 -0.0610327 -0.0253797 4.2e-05 -0.98686 0.151626 -11.4344 2650 
1712 1 -0.0638203 -0.0451599 -0.0259227 0.000116 0.00942411 0.0981395 -0.0232017 2650 
3547 1 -0.0644357 -0.0623108 -0.0234691 0.000423 1.10291 0.0250805 -0.903076 2650 
2165 1 -0.0651733 -0.0594445 -0.0223038 0.000116 1.68248 -1.30467 -4.91632 2650 
2123 1 -0.0648684 -0.0565173 -0.0222496 0.000423 1.22712 0.889386 -3.57766 2650 
1107 1 -0.0647821 -0.0610538 -0.0217824 0.000656 -0.0734878 0.112145 0.218557 2650 
1833 1 -0.0614859 -0.0599428 -0.0178752 0.000116 3.08532 1.14831 -7.14457 2650 
3549 1 -0.0667546 -0.0515295 -0.015709 0.000423 0.16059 0.158067 -0.682419 2650 
1419 1 -0.0663408 -0.062678 -0.0124698 0.000116 0.359526 0.215339 -1.0135 2650 
1865 1 -0.0681657 -0.0463452 -0.0104235 4.2e-05 1.23718 1.31759 -8.09074 2650 
1407 1 -0.0682184 -0.0560242 -0.00955337 0.000116 0.424872 0.928124 -3.03391 2650 
2186 1 -0.0682599 -0.0597518 -0.00925267 0.000116 0.204583 -0.00971435 -1.50928 2650 
786 1 -0.0683383 -0.0614533 -0.00572955 0.000423 0.238746 -0.660079 -2.8476 2650 
3577 1 -0.068741 -0.0527542 -0.00443852 0.000116 0.530218 -0.252671 -8.21168 2650 
400 1 -0.0644797 -0.0620918 -0.00288522 0.000116 -3.00735 0.254624 -11.0829 2650 
2314 1 -0.0681549 -0.0619355 0.00183744 0.000656 0.115363 0.0347114 -4.51205 2650 
1377 1 -0.0688552 -0.0481384 0.00199508 0.000116 -0.0500468 -0.408164 -1.72725 2650 
4331 1 -0.0688592 -0.0470026 0.00185128 0.000116 -0.0832466 0.810086 -3.0964 2650 
947 1 -0.068518 -0.0572265 0.00709248 0.000116 -0.179552 0.431665 -1.73459 2650 
2829 1 -0.0685808 -0.0466892 0.0064568 0.000116 0.0404016 -0.213719 0.429125 2650 
19 1 -0.0682163 -0.0455451 0.0070349 0.000423 0.138919 -1.05795 1.34708 2650 
2051 1 -0.0682959 -0.0554117 0.00898298 0.000116 -0.24573 -1.07789 -1.86824 2650 
420 1 -0.0681748 -0.0590204 0.00985983 0.000116 -0.0290088 -0.779762 -0.200579 2650 
3139 1 -0.0670081 -0.0597294 0.0159671 0.000116 -2.62388 0.0180186 -11.0115 2650 
577 1 -0.066683 -0.05653 0.0160101 0.000423 0.264459 -0.356936 1.10149 2650 
2052 1 -0.0640539 -0.0499431 0.0253401 0.000116 -0.890946 0.392099 -2.25211 2650 
3930 1 -0.060875 -0.0529018 0.03059 0.000116 1.75509 -7.00013 -2.21742 2650 
2234 1 -0.0613102 -0.0507659 0.0307148 0.000423 -0.278206 -0.0627894 -0.0629003 2650 
3058 1 -0.0604956 -0.0466466 0.032944 0.000116 -0.870766 -0.663332 -1.599 2650 
2460 1 -0.05924 -0.0493286 0.034548 0.000423 -0.312267 -1.25852 -0.535449 2650 
1227 1 -0.0590369 -0.0504377 0.034894 0.000423 -0.407933 0.248042 -0.690179 2650 
4307 1 -0.0563529 -0.0620446 0.0390809 0.000423 -2.63757 0.111408 -3.80326 2650 
4229 1 -0.0554265 -0.0620204 0.0409014 0.000116 -1.92696 -0.169441 -2.61128 2650 
917 1 -0.0551059 -0.0558932 0.0408203 0.000423 -1.83938 0.661434 -2.4831 2650 
4068 1 -0.0553623 -0.0466867 0.0404717 0.000423 0.0303645 -0.327236 0.0415364 2650 
3640 1 -0.0544148 -0.0547027 0.041737 0.000423 -0.330938 -1.27972 -0.431463 2650 
4023 1 -0.0541542 -0.0562191 0.0425716 0.000116 -0.997089 -0.66106 -1.26837 2650 
4098 1 -0.0492537 -0.0519755 0.0477182 0.000423 0.595886 -0.0473384 0.61506 2650 
2247 1 -0.0478997 -0.0550141 0.0490772 0.000423 -2.16914 0.679787 -2.1171 2650 
1609 1 -0.047129 -0.0486743 0.0502383 0.000116 -4.35528 -0.545127 -4.08573 2650 
1208 1 -0.0447864 -0.055277 0.0524346 4.2e-05 -2.3255 -0.0613182 -1.9863 2650 
312 1 -0.0428225 -0.061504 0.0539561 0.000116 -3.37351 0.20189 -2.6774 2650 
1955 1 -0.0379743 -0.0557384 0.0574715 0.000116 -1.42006 0.0598837 -0.938307 2650 
1752 1 -0.0132487 -0.0618517 0.0594015 4.2e-05 -0.995893 0.297104 1.42508 2650 
3090 1 -0.0335561 -0.0530252 0.0598075 0.000423 0.761752 0.0807717 0.427396 2650 
3464 1 -0.0319014 -0.0617824 0.0610518 0.000116 -3.45018 -1.66649 -1.80282 2650 
3747 1 -0.0291793 -0.0620244 0.0619911 0.000423 0.496342 0.370911 0.559956 2650 
78 1 -0.0269002 -0.0616155 0.0634145 0.000116 -3.74967 -0.153884 -1.5906 2650 
2527 1 -0.0274578 -0.0608743 0.0632557 4.2e-05 1.52712 0.825724 0.662889 2650 
800 1 -0.0160416 -0.0611251 0.0666757 0.000423 -5.92551 -0.640745 -1.42563 2650 
2177 1 -0.0118 -0.060155 0.067866 0.000116 -10.2968 0.302364 -1.79033 2650 
2672 1 -0.00568891 -0.061922 0.068186 0.000423 -4.83162 -0.14687 0.541561 2650 
201 1 -0.00931948 -0.0528619 0.0682508 0.000116 3.26967 1.11441 0.446466 2650 
3583 1 -0.00271447 -0.0612228 0.0688306 0.000116 -4.65016 -0.6805 -0.183388 2650 
2269 1 -0.00383589 -0.0561511 0.0687772 0.000116 -0.665517 -0.574386 -0.0371177 2650 
2382 1 -0.00108523 -0.0263648 -0.0688756 0.000116 -0.463346 -1.06669 0.00730066 2650 
2813 1 -0.00103412 -0.0156073 -0.0688764 0.000116 -1.97259 -0.10134 0.0296167 2650 
1734 1 -0.00459647 -0.0142702 -0.0687306 0.000116 -2.3187 -0.238199 0.155067 2650 
91 1 -0.00304392 -0.004885 -0.0688168 0.000116 -2.45979 -0.773884 0.108802 2650 
1183 1 -0.00243736 -0.000605915 -0.068841 0.000116 -0.402306 0.0519778 0.0142439 2650 
2711 1 -0.00762654 -0.018963 -0.0684606 0.000116 1.50381 -0.420491 -0.167525 2650 
1550 1 -0.0076758 -0.017918 -0.0679138 0.000656 -0.523996 0.542942 0.0592234 2650 
2538 1 -0.00235548 -0.0134547 -0.0683056 0.000656 -2.16586 -0.104224 0.0746885 2650 
2663 1 -0.00191666 -0.0121766 -0.0685513 0.000423 -2.17802 -0.0900072 0.0608964 2650 
2118 1 -0.0039877 -0.0110004 -0.068462 0.000423 -1.12438 -0.25126 0.0654917 2650 
1325 1 -0.00222806 -0.0105955 -0.0683099 0.000656 -2.09214 0.0268991 0.0682393 2650 
3619 1 -0.0108422 -0.00972286 -0.0681003 4.2e-05 -2.41687 -1.39978 0.384788 2650 
2560 1 -0.00237908 -0.0095515 -0.0685368 0.000423 -2.14227 0.0209792 0.0743633 2650 
3319 1 -0.00307556 -0.00855987 -0.0685091 0.000423 -2.08616 0.146004 0.0936533 2650 
2873 1 -0.00555388 -0.00484423 -0.0683528 0.000423 -0.356265 0.047497 0.0289476 2650 
355 1 -0.000638516 -0.00228249 -0.0685751 0.000423 -1.47433 -0.196986 0.0137278 2650 
3409 1 -0.000493598 -0.00115455 -0.0683444 0.000656 -1.8127 -0.0126112 0.0130918 2650 
3878 1 -0.00126748 -0.000422985 -0.0685663 0.000423 -1.81793 -7.17869e-07 0.0336051 2650 
528 1 -0.0129437 -0.0136313 -0.0676571 0.000116 -1.28718 0.245256 0.246255 2650 
2634 1 -0.0143101 -0.00242203 -0.0674569 4.2e-05 1.07609 -0.220436 -0.228278 2650 
1417 1 -0.0180846 -0.0432745 -0.0664678 0.000116 -0.511521 0.247148 0.139175 2650 
1453 1 -0.0166948 -0.0162447 -0.0665149 0.000423 -1.24336 0.124747 0.312075 2650 
2349 1 -0.0164657 -0.0152117 -0.066572 0.000423 0.551967 0.211334 -0.136522 2650 
2248 1 -0.0143657 -0.0152905 -0.0670565 0.000423 -0.498508 -0.296563 0.106797 2650 
2367 1 -0.0161704 -0.0043953 -0.0669592 0.000116 -0.808798 -0.26899 0.195322 2650 
1020 1 -0.0152225 -0.00113549 -0.0668672 0.000423 -2.33546 0.0746639 0.531671 2650 
2203 1 -0.0188807 -0.0316666 -0.065687 0.000656 6.32072 -1.09822 -1.81679 2650 
3743 1 -0.0183041 -0.021183 -0.0660901 0.000423 -0.157424 0.16682 0.0435997 2650 
534 1 -0.0190344 -0.000344207 -0.0661978 0.000116 2.37461 -1.592 -0.789827 2650 
4110 1 -0.0213747 -0.0399118 -0.0651619 0.000423 -1.20715 -0.306912 0.395975 2650 
1886 1 -0.0218667 -0.00316908 -0.0649984 0.000423 -1.49912 -0.257369 0.504332 2650 
827 1 -0.0236177 -0.0231199 -0.0647088 0.000116 -0.306709 -0.828322 0.111944 2650 
4048 1 -0.0248344 -0.0207182 -0.0643309 4.2e-05 10.0276 3.38909 -3.87106 2650 
4052 1 -0.0243465 -0.0143912 -0.0645171 4.2e-05 -0.0238384 1.57938 0.00899575 2650 
152 1 -0.0228405 -0.00750949 -0.0646627 0.000423 -1.87741 -0.129379 0.663147 2650 
2703 1 -0.0237539 -0.00575974 -0.0646589 0.000116 -0.707471 -0.257216 0.259906 2650 
13 1 -0.0234572 -0.00400481 -0.0644415 0.000423 -0.91245 0.234328 0.332138 2650 
2376 1 -0.0245498 -0.00338903 -0.0643609 0.000116 -2.12577 0.416502 0.810853 2650 
2139 1 -0.0247298 -0.0024042 -0.0639639 0.000423 -0.969748 0.33122 0.374925 2650 
491 1 -0.0233941 -0.000442977 -0.0644645 0.000423 -1.83615 -0.0129875 0.666338 2650 
1278 1 -0.0264328 -0.011626 -0.0636108 0.000116 0.375262 2.01422 -0.155936 2650 
3741 1 -0.0278087 -0.0386568 -0.0626867 0.000423 -0.72243 -0.165322 0.320479 2650 
2790 1 -0.026875 -0.0332395 -0.0630927 0.000423 -1.33484 -0.0239802 0.568591 2650 
1616 1 -0.0300995 -0.0406266 -0.06196 0.000116 -0.507144 -0.588971 0.246366 2650 
1341 1 -0.0289861 -0.0376336 -0.0621511 0.000423 -1.35275 -0.200467 0.630894 2650 
2091 1 -0.0312339 -0.0351174 -0.0607918 0.000656 -0.541624 -0.298414 0.278278 2650 
1462 1 -0.0308399 -0.0080504 -0.0612524 0.000423 -1.12086 0.0857911 0.564342 2650 
3393 1 -0.0326508 -0.0298044 -0.0604321 4.2e-05 0.606355 -1.49927 1.17987 2650 
2959 1 -0.0338561 -0.000967151 -0.0600748 4.2e-05 -2.75971 0.254712 1.55528 2650 
322 1 -0.0335181 -0.00131221 -0.060264 4.2e-05 -2.69889 0.440342 1.50109 2650 
2310 1 -0.0342242 -0.0396926 -0.0598658 4.2e-05 -1.74581 -1.798 0.998045 2650 
4373 1 -0.034095 -0.014829 -0.0599395 4.2e-05 -5.00202 -1.13002 2.84527 2650 
2714 1 -0.0349297 -0.0114497 -0.0593713 0.000116 7.63728 1.56747 -4.49321 2650 
3069 1 -0.0333246 -0.042513 -0.0585394 4.2e-05 13.1064 -2.09348 -0.00136274 2650 
4150 1 -0.0362052 -0.000922394 -0.0586021 0.000116 -1.31954 -0.0103025 0.815232 2650 
822 1 -0.0354799 -0.00129923 -0.0586867 0.000423 -1.30403 -0.0684296 0.788373 2650 
1132 1 -0.0370346 -0.00592256 -0.0577182 0.000423 -1.3611 0.0518436 0.873345 2650 
3479 1 -0.0365828 -0.00427837 -0.05835 0.000116 -1.91276 0.733595 1.22041 2650 
2208 1 -0.035892 -0.00463141 -0.0581634 0.000656 -1.97571 -0.178966 1.21914 2650 
4297 1 -0.0367955 -0.00299304 -0.0578692 0.000423 0.160435 1.86929 -0.0938051 2650 
4213 1 -0.0360441 -0.000478093 -0.0583419 0.000423 -1.31053 -0.0135306 0.809658 2650 
3582 1 -0.038488 -0.0193292 -0.0569627 0.000116 0.929456 0.492023 -0.734704 2650 
3963 1 -0.0372486 -0.00375718 -0.0575675 0.000423 1.19556 -0.851401 -0.727464 2650 
902 1 -0.0387511 -0.0429741 -0.05658 0.000423 0.103835 0.289279 -0.0711156 2650 
2418 1 -0.0409266 -0.0449216 -0.0554998 4.2e-05 -3.02847 0.5591 2.23325 2650 
1082 1 -0.0394289 -0.0420924 -0.0546144 0.000116 2.76571 -0.888676 -0.890773 2650 
394 1 -0.0414743 -0.033673 -0.0549991 0.000116 0.0111228 1.04729 -0.00838764 2650 
1239 1 -0.0421443 -0.0384949 -0.0540999 0.000423 -0.554937 -0.389334 0.432301 2650 
3748 1 -0.042635 -0.037302 -0.0537141 0.000423 -0.887922 -0.203702 0.704778 2650 
2765 1 -0.0418018 -0.0307255 -0.054365 0.000423 -0.271236 0.687293 0.208556 2650 
3673 1 -0.0434737 -0.0353924 -0.0530376 0.000423 -1.83925 -1.70612 1.50759 2650 
3636 1 -0.0434286 -0.0236062 -0.0530745 0.000423 -1.16027 0.28843 0.949401 2650 
440 1 -0.0454288 -0.00580703 -0.0518791 4.2e-05 -2.40879 -0.133618 2.1093 2650 
1047 1 -0.0454733 -0.00490657 -0.0517417 0.000116 -1.18164 -0.262546 1.03849 2650 
1008 1 -0.0458265 -0.0316975 -0.0510184 0.000423 -0.208677 -0.582934 0.187441 2650 
1180 1 -0.0466085 -0.0258182 -0.0507215 0.000116 -0.0173093 1.31654 0.0159057 2650 
2875 1 -0.0460867 -0.000932828 -0.0507835 0.000423 -1.49284 -0.0649387 1.35477 2650 
2143 1 -0.046443 -0.0399714 -0.0504579 0.000423 -1.0004 -0.271785 0.920799 2650 
2018 1 -0.0471067 -0.035692 -0.0498388 0.000423 -1.04304 -0.141687 0.985862 2650 
3066 1 -0.0392607 -0.0207229 -0.0497647 4.2e-05 1.46736 -0.166492 -9.5742 2650 
502 1 -0.0468265 -0.0186061 -0.0505203 0.000116 -0.785036 -0.226657 0.727637 2650 
3882 1 -0.0430423 -0.00711443 -0.0502573 0.000423 -1.21101 -0.270804 3.10129 2650 
1224 1 -0.0471978 -0.00138631 -0.0497526 0.000423 -1.50006 0.0651243 1.42304 2650 
3904 1 -0.0474487 -0.000342354 -0.0499364 0.000116 -1.37031 0.222963 1.30204 2650 
1640 1 -0.0492967 -0.0109923 -0.0482187 4.2e-05 1.12391 -0.5669 -1.14904 2650 
343 1 -0.0481398 -0.0010264 -0.0488417 0.000423 -1.30756 -0.0418016 1.28877 2650 
1945 1 -0.049722 -0.0149047 -0.0476733 0.000116 -1.27192 0.233732 1.32658 2650 
4006 1 -0.04912 -0.00058141 -0.0476736 0.000116 -2.35563 0.384481 1.95755 2650 
2112 1 -0.0501556 -0.0306932 -0.0467693 0.000423 -0.380125 -0.368258 0.407647 2650 
358 1 -0.0499215 -0.0280996 -0.0470191 0.000423 1.53968 0.791252 -1.63472 2650 
1612 1 -0.0506956 -0.000857194 -0.0466366 0.000116 -0.0875699 -0.0471233 0.0951915 2650 
3477 1 -0.0501202 -0.00020281 -0.0472545 0.000116 -1.94746 2.09224 2.06556 2650 
3431 1 -0.0505745 -0.0338573 -0.046316 0.000423 -0.792165 0.0965506 0.865 2650 
856 1 -0.0505504 -0.0206774 -0.0460408 0.000116 6.04606 0.0464146 -10.6777 2650 
1968 1 -0.0505163 -0.000745359 -0.0460619 0.000116 0.394308 -0.180497 -6.67138 2650 
2837 1 -0.0519791 -0.0396879 -0.0452017 0.000116 0.922481 -1.4039 -1.06079 2650 
3943 1 -0.0527531 -0.0375425 -0.0444108 4.2e-05 2.34551 -2.34996 -2.7861 2650 
3375 1 -0.0527849 -0.0334445 -0.0442581 0.000116 0.787231 2.26703 -0.938898 2650 
1202 1 -0.039733 -0.0262971 -0.0443746 4.2e-05 1.63442 -1.00569 -8.21775 2650 
2717 1 -0.0534188 -0.037753 -0.0434523 0.000116 0.992954 1.48326 -0.0299438 2650 
2340 1 -0.0531023 -0.0381972 -0.0433928 0.000423 -0.151653 0.203959 0.166409 2650 
365 1 -0.0536664 -0.0224792 -0.042695 0.000423 -0.631184 -0.0754767 0.79338 2650 
3330 1 -0.0534464 -0.00222094 -0.0429701 0.000423 -1.18876 -0.111762 1.47859 2650 
2846 1 -0.0542644 -0.0145181 -0.0425509 4.2e-05 -1.45857 -0.549881 1.86009 2650 
1404 1 -0.0557953 -0.0304282 -0.0403969 0.000116 0.169809 -0.645416 -0.234536 2650 
3196 1 -0.0551107 -0.0064131 -0.0408137 0.000423 -1.25404 -0.192392 1.69333 2650 
3543 1 -0.0556277 -0.0337166 -0.0401062 0.000423 -0.485087 -0.331547 0.672819 2650 
1206 1 -0.0570193 -0.0445362 -0.0387815 4.2e-05 3.86895 3.28653 -5.68841 2650 
3881 1 -0.0560871 -0.0296486 -0.0394612 0.000423 -0.594392 -0.249251 0.844821 2650 
733 1 -0.056768 -0.00455215 -0.0390182 0.000116 -0.880781 0.0756967 1.28146 2650 
1915 1 -0.0567579 -0.0159943 -0.0384901 0.000423 -1.03265 -0.122174 1.52276 2650 
3688 1 -0.0567636 -0.0338779 -0.0376361 0.000116 -1.85583 -0.24858 2.27105 2650 
1528 1 -0.0584295 -0.0109617 -0.036483 0.000116 -0.249799 1.19867 0.400066 2650 
3418 1 -0.0586696 -0.0119227 -0.0355081 0.000423 -0.242016 1.30278 0.39988 2650 
1938 1 -0.0615935 -0.0233895 -0.0308426 0.000116 0.0350373 -0.274165 -0.0699704 2650 
1083 1 -0.0613898 -0.0024812 -0.031246 0.000116 -0.779768 -0.500168 1.53203 2650 
2476 1 -0.0618193 -0.0400582 -0.0303874 0.000116 0.11139 -0.786386 -0.226609 2650 
453 1 -0.0616403 -0.000786294 -0.0300571 0.000423 -0.963337 -0.0571226 1.97559 2650 
3807 1 -0.0621346 -0.0212104 -0.0297375 0.000116 -0.523373 0.0973644 1.09355 2650 
3426 1 -0.0617746 -0.0102655 -0.0297799 0.000423 -0.586678 -0.0339869 1.21699 2650 
1922 1 -0.0617469 -0.00867593 -0.0298373 0.000423 -0.617446 0.0522133 1.27778 2650 
4187 1 -0.0619796 -0.000422975 -0.029351 0.000423 -0.931891 6.30132e-05 1.96784 2650 
631 1 -0.0626124 -0.0391726 -0.0287178 0.000116 2.4091 -2.17719 -5.25247 2650 
3692 1 -0.0624806 -0.0274257 -0.0290033 0.000116 0.371807 -0.795027 -0.800968 2650 
2775 1 -0.0623392 -0.00343964 -0.0285792 0.000423 -0.658833 -0.161544 1.4371 2650 
2396 1 -0.0624367 -0.000286177 -0.0290978 0.000116 -0.920943 -0.0267109 1.97612 2650 
2212 1 -0.0621653 -0.0420004 -0.0284021 0.000656 -0.508616 -0.314115 1.11324 2650 
871 1 -0.0637173 -0.0185317 -0.0263688 4.2e-05 0.0430878 0.042933 -0.104117 2650 
4308 1 -0.0635385 -0.0290152 -0.0258033 0.000423 -0.703167 -0.000747231 1.73149 2650 
2131 1 -0.0636242 -0.0135661 -0.0255913 0.000423 -0.404815 0.352948 1.00644 2650 
213 1 -0.0626903 -0.0151025 -0.0252849 4.2e-05 2.89476 0.346814 -8.75909 2650 
138 1 -0.0648915 -0.0270446 -0.0221819 0.000423 -0.63815 0.00138793 1.86686 2650 
848 1 -0.0652872 -0.00610493 -0.0219683 0.000116 -1.0217 -0.14039 3.03636 2650 
4159 1 -0.0568178 -0.00457438 -0.0214857 4.2e-05 -8.76568 -0.130685 -3.31787 2650 
1136 1 -0.0654059 -0.0394095 -0.020616 0.000423 -0.370158 -0.276113 1.17436 2650 
2998 1 -0.0656446 -0.0265437 -0.0198427 0.000423 -0.231227 -0.324321 0.764958 2650 
2848 1 -0.065939 -0.0254544 -0.0201806 4.2e-05 0.176085 1.82745 -0.575348 2650 
2353 1 -0.0656013 -0.017056 -0.0199853 0.000423 -0.142395 0.205255 0.467407 2650 
2589 1 -0.0663502 -0.0183385 -0.0185115 0.000116 -0.853671 -0.114425 3.05978 2650 
2147 1 -0.0664073 -0.0108839 -0.0183056 0.000116 -0.159051 -0.677727 0.576991 2650 
1558 1 -0.0662861 -0.0343497 -0.0175816 0.000423 -0.822849 -1.26877 3.10229 2650 
1161 1 -0.0665248 -0.00875025 -0.0178738 0.000116 -0.595201 -0.443289 2.21529 2650 
3647 1 -0.0662953 -0.00583332 -0.0175468 0.000423 -0.604861 -0.111104 2.28528 2650 
378 1 -0.0661507 -0.000795754 -0.0180841 0.000423 -0.427547 0.0352583 1.56394 2650 
606 1 -0.000183 0.00117836 -0.016592 0.000116 0 -0.011753 0 2650 
302 1 -0.00187371 0.0103141 -0.0166705 0.000116 -0.0347922 0.0241041 0.0152166 2650 
2013 1 -0.00301468 0.00312115 -0.0158524 0.000423 -0.00154235 0.00221798 0.00156406 2650 
2301 1 -0.0043502 0.00332771 -0.0160115 4.2e-05 -0.00116259 -0.0070103 0.00459775 2650 
4227 1 -0.000338949 0.00345042 -0.0165621 0.000116 0.00593372 -0.017543 0.0130313 2650 
2283 1 -0.00353074 0.00458679 -0.0163719 0.000116 -0.00010552 0.00956354 0.000789399 2650 
889 1 -0.00119357 0.0046619 -0.0158339 0.000656 0.0221019 0.0158351 0.0220207 2650 
2520 1 -0.00017672 0.00490155 -0.0165412 4.2e-05 0.00318265 0.000380138 0.00682554 2650 
3365 1 -0.00161417 0.00616147 -0.0164313 0.000116 0.015804 0.0241832 0.0212134 2650 
978 1 -0.0020141 0.00622813 -0.0164388 0.000116 0.0180122 -0.00353228 -0.00159853 2650 
3934 1 -0.001977 0.00594036 -0.016218 0.000116 0 -0.011753 0 2650 
2726 1 -0.00057285 0.0091554 -0.0163154 0.000116 -0.00741369 0.00988612 -0.041436 2650 
3150 1 -0.00226441 0.010076 -0.0159732 0.000116 -0.0182263 -0.0087302 -0.0269448 2650 
938 1 -0.0015331 0.00993357 -0.0160536 0.000116 -0.00119823 0.000558801 -0.00633771 2650 
1483 1 -0.000492634 0.0105364 -0.0164479 0.000423 -0.000431738 0.0094693 0.00416488 2650 
3007 1 -0.00296237 0.0115487 -0.0160249 0.000423 -0.00754521 0.0118776 -0.00214285 2650 
371 1 -0.000546101 0.0119818 -0.0162738 0.000423 -0.00963196 0.00951459 -0.00479058 2650 
188 1 -0.0032061 0.0136083 -0.0161163 0.000116 -0.0148612 0.0228045 0.00418427 2650 
3051 1 -0.00259788 0.0141587 -0.016125 0.000116 0.163555 -0.227841 -0.0207843 2650 
2182 1 -0.00150268 0.0140963 -0.0161378 0.000116 0.00266263 0.0360122 0.0211071 2650 
2713 1 -0.000701903 0.0160041 -0.0158864 0.000116 0.00037122 0.035974 0.00535071 2650 
93 1 -0.00521248 0.0204367 -0.0159109 0.000116 0.0714693 0.0500535 -0.0191255 2650 
1717 1 -0.00405617 0.0310533 -0.0161573 0.000116 -0.014717 0.0706098 -0.0348682 2650 
2264 1 -0.000489374 0.0517334 -0.0164495 0.000116 -0.0637592 0.11185 0.0253368 2650 
4342 1 -0.0671572 -0.0231832 -0.0153187 0.000116 0.806921 -0.627216 -3.59562 2650 
30 1 -0.00230409 -0.00240363 -0.0154083 0.000423 -0.0139928 -0.0214008 0.00726417 2650 
3599 1 -0.000169131 -0.00187248 -0.0153189 0.000116 0.0260231 -0.00977207 -0.00117121 2650 
3576 1 -0.000465898 -0.00138293 -0.0155541 0.000116 0.0561059 0.00120064 -0.0311085 2650 
999 1 -1.83345e-05 0.000401544 -0.0156643 0.000656 -0.00841998 -0.0161411 -0.0218233 2650 
2399 1 -0.002418 0.00139236 -0.015541 0.000116 0 -0.011753 0 2650 
3637 1 -0.00545156 0.00429136 -0.0152876 0.000423 -0.00704251 0.0124689 0.006236 2650 
1611 1 -0.00138884 0.00414002 -0.0151497 0.000116 0.0444256 -0.019621 0.0278665 2650 
1679 1 -0.00430941 0.00507768 -0.0157448 0.000423 -0.00453172 0.0157125 0.00260684 2650 
1827 1 -0.0041486 0.00695496 -0.0152647 0.000116 -0.00517626 -0.0457281 -0.00851659 2650 
3830 1 -0.006879 0.00749236 -0.015411 4.2e-05 0 -0.011753 0 2650 
2438 1 -0.00625077 0.0072394 -0.015158 0.000423 -0.00472103 -0.000373669 -0.00125399 2650 
2313 1 -0.00330156 0.00787315 -0.0152068 0.000656 0.00750763 0.00230554 0.0199624 2650 
2851 1 -0.00675663 0.0117497 -0.0153564 4.2e-05 -0.241757 -0.132402 0.104339 2650 
70 1 -0.00239406 0.0133634 -0.0155324 0.000116 0.0560864 0.0328811 0.00597028 2650 
2793 1 -0.000907446 0.0133145 -0.0151934 0.000423 0.00400332 0.0260717 0.000754087 2650 
3838 1 -0.00516419 0.0142874 -0.0153187 0.000656 0.0059045 0.0308137 -0.0288407 2650 
2466 1 -0.0027071 0.0228334 -0.0153576 0.000423 0.0618857 0.0331724 -0.00268308 2650 
1053 1 -0.007469 -0.00244964 -0.014946 0.000116 0 -0.011753 0 2650 
3011 1 -0.000393985 -0.00262269 -0.0149463 0.000423 0.0180353 -0.0317081 -0.0392676 2650 
2666 1 -0.00771066 0.00263008 -0.0143026 0.000423 0.0108489 0.0809916 0.0205028 2650 
857 1 -0.00766375 0.00344348 -0.0147831 0.000116 -0.0623021 0.0193526 0.00200378 2650 
3787 1 -0.00685169 0.00396516 -0.014607 0.000116 -0.0024271 -0.00223267 -0.0195234 2650 
1192 1 -0.00721677 0.00646792 -0.0147736 0.000116 0.00510585 0.0133553 0.012363 2650 
3364 1 -0.00678779 0.0085703 -0.0147823 0.000116 -0.00179506 0.0163753 -0.0232219 2650 
581 1 -0.00559791 0.00811219 -0.0144346 0.000423 0.00044719 0.0010883 0.00185987 2650 
233 1 -0.00326183 0.0087117 -0.0142598 0.000423 0.0114684 -0.00558491 0.0116559 2650 
2774 1 -0.00679014 0.0104817 -0.0143147 0.000423 -0.0403569 0.0250138 -0.0137733 2650 
86 1 -0.00507657 0.0109416 -0.0149323 0.000116 -0.0196067 0.0126222 0.000798653 2650 
2969 1 -0.00266653 0.0110031 -0.0148477 0.000656 -0.00667616 0.014076 0.00443217 2650 
438 1 -0.00885005 0.0110669 -0.0143675 4.2e-05 0.00854646 0.00400873 0.0554682 2650 
2781 1 -0.0057201 0.0113276 -0.0148255 0.000423 0.00977627 0.0105103 0.0120467 2650 
1228 1 -0.00261984 0.0138556 -0.0147032 0.000423 -0.0165339 0.0339414 0.00465399 2650 
2191 1 -0.00232885 0.0134679 -0.0144239 4.2e-05 -0.00764734 0.00298638 -0.00836536 2650 
3644 1 -0.00134668 0.0144362 -0.0146784 0.000423 -0.00424564 0.0328325 0.0133159 2650 
3165 1 -0.00818436 0.0207538 -0.0146653 0.000116 -0.224864 0.134576 0.0947812 2650 
2585 1 -0.00190778 0.0277785 -0.014961 0.000116 -0.0221426 0.0759057 0.0070692 2650 
1195 1 -0.0029242 0.0352314 -0.0149903 0.000116 0.0557766 0.0782116 -0.0138054 2650 
1379 1 -0.0675061 -0.0125482 -0.0137093 0.000116 -0.637343 -0.400002 3.13834 2650 
3785 1 -0.0674444 -0.00687416 -0.0140098 0.000116 -0.193239 -0.499525 0.930269 2650 
4345 1 -0.0674142 -0.00664769 -0.0134639 0.000116 0.58851 3.51615 -8.07576 2650 
3233 1 -0.000442405 -0.00407113 -0.0135406 0.000423 -0.0443521 -0.252316 -1.65933 2650 
4244 1 -0.00344873 -0.00320572 -0.0141313 0.000116 -0.0436806 -0.00994679 0.0125723 2650 
736 1 -0.00870909 -0.00180448 -0.0141339 0.000116 -0.0307431 -0.0170391 0.0144389 2650 
509 1 -0.00785307 -0.000841241 -0.0141778 0.000116 -0.00480979 -0.0076817 0.0108723 2650 
1763 1 -0.00392285 -0.000707995 -0.0137668 0.000656 0.0110536 0.0386342 0.0470271 2650 
1991 1 -0.00849161 0.000169006 -0.0137763 0.000656 -0.0192457 -0.00223252 0.00858771 2650 
2609 1 -0.00847632 0.00121272 -0.013469 0.000116 -0.00705034 0.0126459 0.00789545 2650 
2473 1 -0.00913002 0.00221443 -0.0134654 0.000423 -0.0442117 0.037927 0.0421781 2650 
763 1 -0.00728072 0.00332107 -0.0138099 4.2e-05 -0.0107376 -0.0192397 -0.014763 2650 
220 1 -0.00329994 0.00370751 -0.0137089 4.2e-05 0.00197382 0.00663681 0.00671825 2650 
1288 1 -0.002467 0.00512136 -0.014044 0.000116 0 -0.011753 0 2650 
3515 1 -0.00854307 0.00637461 -0.0136002 0.000656 -0.00454215 -0.00749919 0.00616721 2650 
1618 1 -0.00946929 0.00762202 -0.0138504 0.000116 0.0059414 0.00192455 -0.00369393 2650 
1769 1 -0.00859842 0.00787118 -0.013673 0.000656 -0.00763615 -0.00751468 0.00847974 2650 
4368 1 -7.12623e-05 0.00863941 -0.0141873 0.000116 0.0213285 8.20602e-05 -0.0260591 2650 
4190 1 -0.00929068 0.00941816 -0.013619 0.000423 -0.00662655 0.00573878 0.00360714 2650 
842 1 -0.00783656 0.00886551 -0.0139194 0.000116 -0.0132472 -0.000581938 -0.0143857 2650 
1409 1 -0.00050473 0.00888739 -0.0139021 0.000116 -0.00338114 -0.0124825 -0.00177889 2650 
793 1 -4.6095e-05 0.00938587 -0.0138447 0.000423 -0.00384688 0.00642406 -0.0108379 2650 
2453 1 -0.00596052 0.0123112 -0.0141329 0.000423 0.00287214 0.0261989 -0.0126472 2650 
1802 1 -0.00324219 0.0123933 -0.0140555 0.000423 0.00500259 -0.000364755 -0.0111755 2650 
2345 1 -0.00167048 0.0137265 -0.0137809 0.000423 -0.0175833 0.0131789 -0.0282092 2650 
128 1 -0.000817292 0.0140072 -0.0139438 0.000423 -0.0122377 0.0336028 -0.0162643 2650 
3145 1 -0.00901715 0.0149052 -0.0141267 0.000116 0.00413084 0.0258652 0.0123186 2650 
3471 1 -0.00743313 0.0148003 -0.0138571 0.000116 0.00654915 0.0415659 -0.0136084 2650 
1839 1 -0.00716056 0.016362 -0.0136011 0.000116 -0.0676852 0.0211351 0.0188737 2650 
2924 1 -0.00928794 0.0168712 -0.014017 0.000116 -0.0500795 0.0331408 0.0243033 2650 
4234 1 -0.00479052 0.0341407 -0.0142097 0.000116 0.00512064 0.0508026 0.0366661 2650 
2056 1 -0.00958326 0.0358629 -0.013725 0.000116 -0.657629 0.119951 0.492882 2650 
456 1 -0.00844593 0.0431642 -0.0141109 0.000423 -0.335744 -0.0141268 0.23372 2650 
4010 1 -0.00585023 0.0452832 -0.0136283 0.000116 0.0373387 0.0604042 0.0259593 2650 
2614 1 -0.00215976 0.0521239 -0.0137045 0.000116 -0.0792369 -0.0730102 0.0417576 2650 
3211 1 -0.00771307 0.0541225 -0.0134899 0.000423 0.121461 0.0923792 -0.0696515 2650 
336 1 -0.0670433 -0.0295514 -0.0132812 0.000656 -0.351959 -0.0166545 1.77668 2650 
3191 1 -0.00992811 -0.00097045 -0.012666 0.000656 -0.00910125 -0.0063157 0.00903986 2650 
379 1 -0.0672577 -0.000431875 -0.0133921 0.000423 -0.335373 -0.0143841 1.6843 2650 
2525 1 -0.00409177 -0.000592294 -0.0130689 4.2e-05 -0.0107216 0.0103625 0.0604028 2650 
2922 1 -0.00814559 0.00131787 -0.0132942 0.000116 -0.00925852 -0.000802711 0.00675368 2650 
2512 1 -0.00637546 0.00111599 -0.013284 0.000116 0.018779 -0.0192413 0.00230208 2650 
3316 1 -0.0100953 0.00178023 -0.0129908 0.000423 -0.00552961 -0.00411585 -0.00161779 2650 
3917 1 -0.003984 0.00164936 -0.012703 0.000116 0 -0.011753 0 2650 
2059 1 -0.003583 0.00185836 -0.012756 0.000116 0 -0.011753 0 2650 
2913 1 -0.00954151 0.0030473 -0.0134136 0.000116 -0.0031719 -0.0208365 0.00893463 2650 
4374 1 -0.00952276 0.00294917 -0.0128678 4.2e-05 -0.00342399 0.0134868 -0.018776 2650 
1427 1 -0.002948 0.00418936 -0.013376 4.2e-05 0 -0.011753 0 2650 
3362 1 -0.0026017 0.00465528 -0.0130095 0.000116 0.000350619 -0.00253681 -0.00404217 2650 
2322 1 -0.0092985 0.00504166 -0.01321 0.000656 -0.00463581 -0.0140818 0.00324309 2650 
4179 1 -0.00815875 0.00498708 -0.0128661 0.000423 -0.000889884 -0.0208242 0.00186897 2650 
1388 1 -0.0075654 0.00557454 -0.013102 0.000116 -0.039288 0.0021603 0.0169103 2650 
963 1 -0.00676419 0.00680428 -0.0126641 0.000116 0.00350227 -0.00324664 0.0156587 2650 
1204 1 -0.00333857 0.00669814 -0.0127502 4.2e-05 0.0310616 -0.0128877 0.0295818 2650 
1250 1 -0.00946793 0.00717085 -0.0132578 0.000423 -0.0126021 -0.0099031 0.00355829 2650 
4257 1 -0.00842857 0.00711924 -0.0127228 0.000116 -0.00578911 -0.00907208 0.00958653 2650 
2918 1 -0.00599809 0.00731135 -0.0128687 0.000116 0.0149777 0.0131491 0.0124233 2650 
2483 1 -0.0056683 0.00753275 -0.0134076 0.000116 0.00771374 -0.0189039 -0.0218467 2650 
3310 1 -0.00583973 0.00787196 -0.0127133 0.000423 -0.0174383 -0.0118405 -0.00571758 2650 
2912 1 -0.00529545 0.00731817 -0.0130463 0.000116 0.00196064 0.0151142 0.00117299 2650 
1241 1 -0.00970548 0.00811723 -0.0128664 0.000423 -0.00486634 -0.0127471 -0.0163098 2650 
2092 1 -0.00673725 0.00930189 -0.0128051 0.000656 -0.000409162 0.00160139 0.0230931 2650 
1237 1 -0.00983706 0.00981627 -0.0131071 0.000423 -0.00973792 0.00810698 -0.000416531 2650 
1775 1 -0.00853476 0.00980256 -0.0131381 0.000423 -0.00776621 -0.00915809 -0.000158119 2650 
1515 1 -0.00805637 0.00973435 -0.0128104 0.000116 0.0281776 0.0165381 -0.0135055 2650 