ITEM: TIMESTEP
8584410
ITEM: NUMBER OF ATOMS
4319
ITEM: BOX BOUNDS ff ff ff
-0.15 0.15
-0.15 0.06
-0.15 0.15
ITEM: ATOMS id type x y z radius vx vy vz density 
2593 1 -8.31078e-05 -0.0549862 -0.0688841 0.000116 3.76458 0.12975 -0.00454192 2650 
4132 1 -0.00143631 -0.0499942 -0.0688691 0.000116 0.485486 0.266866 -0.0101251 2650 
758 1 -0.0134922 -0.0565846 -0.0675499 0.000116 -2.58101 -0.477536 0.515522 2650 
2820 1 -0.0187276 -0.0562645 -0.0662895 0.000116 1.52181 0.863685 -0.42993 2650 
3974 1 -0.0202773 -0.0585786 -0.0655117 0.000423 0.594677 -0.0669481 -0.184066 2650 
1081 1 -0.0219899 -0.0496101 -0.0652799 0.000116 -0.758294 -0.177493 0.255435 2650 
4366 1 -0.0235559 -0.062356 -0.063009 0.000116 2.53941 -0.30243 -2.0429 2650 
4036 1 -0.029666 -0.0531248 -0.0621687 0.000116 0.745281 -0.0924526 -0.355638 2650 
1058 1 -0.0336056 -0.0598058 -0.0601306 0.000116 0.766515 -0.616063 -0.428387 2650 
1856 1 -0.0361003 -0.0575199 -0.0586668 0.000116 0.324498 0.139813 -0.199678 2650 
3000 1 -0.0476282 -0.05621 -0.0493407 0.000423 -1.08724 -0.582574 1.0495 2650 
935 1 -0.049189 -0.0486754 -0.0477849 0.000423 1.01233 -0.251148 -1.04207 2650 
2829 1 -0.0512116 -0.0539591 -0.0460694 0.000116 -1.51103 -1.46332 1.67969 2650 
3348 1 -0.0512742 -0.052427 -0.0459998 0.000116 -1.91413 0.439516 2.13361 2650 
1290 1 -0.052838 -0.0545888 -0.0441947 0.000116 1.20759 -2.38189 -1.44376 2650 
2296 1 -0.0555926 -0.0623177 -0.0406754 0.000116 1.66185 -0.979173 -2.27131 2650 
1934 1 -0.0556617 -0.0601603 -0.0405807 0.000116 2.38865 -0.438134 -3.27634 2650 
3619 1 -0.0547329 -0.0552391 -0.0405581 4.2e-05 1.80693 0.481585 -1.45469 2650 
2201 1 -0.0552952 -0.0554322 -0.0401702 0.000656 1.34838 -0.0836669 -1.85605 2650 
854 1 -0.05604 -0.0528675 -0.0400567 0.000116 1.91657 0.637514 -2.68131 2650 
51 1 -0.0555135 -0.0455089 -0.0402641 0.000423 0.492613 -0.0217116 -0.679182 2650 
1471 1 -0.0580638 -0.0622435 -0.0364906 0.000423 0.0728532 0.0469599 -0.14034 2650 
3260 1 -0.0583857 -0.0520577 -0.0365532 0.000116 0.296969 -1.53882 -0.474342 2650 
3691 1 -0.059899 -0.0618264 -0.0340166 0.000116 -0.440743 0.0488998 0.776094 2650 
4139 1 -0.0646117 -0.0563827 -0.0238821 0.000116 0.423376 -0.103279 -1.14542 2650 
2606 1 -0.0653493 -0.0567917 -0.0217844 0.000116 11.0574 0.116627 -33.1702 2650 
390 1 -0.0666729 -0.0589156 -0.0168592 0.000116 -0.264141 0.982256 -0.295767 2650 
3038 1 -0.0630173 -0.0609713 -0.0166374 0.000116 1.49857 0.858633 -5.57156 2650 
3547 1 -0.0666177 -0.0474533 -0.0162798 0.000423 -0.110873 0.272781 0.453698 2650 
3753 1 -0.067403 -0.062053 -0.0126403 0.000423 -0.204342 0.0505752 1.09094 2650 
2081 1 -0.0685598 -0.0488906 -0.00740074 4.2e-05 1.53218 0.644688 -14.194 2650 
1816 1 -0.0686217 -0.0591016 -0.00600708 0.000116 0.0368617 0.00669599 -0.421088 2650 
1231 1 -0.0684117 -0.0496904 -0.0047733 0.000423 -0.0792168 -0.153486 1.13535 2650 
3090 1 -0.0685518 -0.0597502 -0.00189622 0.000423 -0.0279206 0.0667581 1.00938 2650 
2072 1 -0.0688716 -0.051774 -0.00131164 0.000116 -0.012112 -1.40714 0.635979 2650 
3586 1 -0.0688348 -0.0573119 0.002605 0.000116 -0.0822933 0.293709 -2.17453 2650 
3139 1 -0.0688065 -0.0458547 0.00314002 0.000116 0.0746009 -1.21447 -2.72437 2650 
2848 1 -0.068234 -0.0539908 0.00996619 4.2e-05 -1.00077 0.0575482 -6.85186 2650 
1316 1 -0.0667791 -0.0603935 0.0171975 4.2e-05 -1.01712 0.501286 -3.94955 2650 
239 1 -0.066165 -0.0581413 0.018028 0.000423 0.501487 0.407782 1.34376 2650 
1377 1 -0.0663782 -0.0584211 0.0184336 0.000116 1.94271 -4.87899 -0.776969 2650 
843 1 -0.0638077 -0.0498719 0.0259538 0.000116 0.206618 0.0157828 0.507973 2650 
95 1 -0.0634123 -0.0495845 0.0269054 0.000116 -0.483088 1.32311 -1.13857 2650 
1630 1 -0.0634275 -0.0487566 0.0268695 0.000116 0.307579 0.401593 0.726064 2650 
2965 1 -0.0524008 -0.0617792 0.0280533 4.2e-05 -9.60973 0.182683 -9.03274 2650 
4376 1 -0.0631214 -0.0612077 0.0277651 4.2e-05 -0.232713 -0.0404181 -0.52905 2650 
394 1 -0.0629113 -0.0453931 0.028057 0.000116 0.602741 -0.49088 1.35151 2650 
1784 1 -0.0615275 -0.0531398 0.0302872 0.000423 0.446454 -0.241071 0.906958 2650 
800 1 -0.0572612 -0.0500094 0.0377372 0.000423 1.22298 -0.996499 1.85678 2650 
1030 1 -0.0568213 -0.0495619 0.0383966 0.000423 1.15713 0.0423308 1.71268 2650 
2833 1 -0.0545251 -0.0485827 0.0420955 0.000116 -0.412205 -1.08389 -0.533917 2650 
3891 1 -0.0524214 -0.0531601 0.0442148 0.000423 0.165212 -0.625192 0.195876 2650 
2 1 -0.0519785 -0.0456925 0.0443783 0.000656 1.02352 0.254763 1.1988 2650 
518 1 -0.048444 -0.0612869 0.0489714 0.000116 -1.68309 -0.0971684 -1.66497 2650 
3088 1 -0.0440121 -0.0623734 0.0525918 0.000423 -2.51743 -0.0180173 -2.10662 2650 
856 1 -0.040877 -0.0567901 0.0553098 0.000116 -2.29232 1.45897 -1.80163 2650 
3549 1 -0.0386439 -0.0608084 0.0566533 0.000423 -1.07958 0.181254 -0.736391 2650 
868 1 -0.0374441 -0.0626712 0.056822 0.000116 -5.45344 0.00266899 -9.03706 2650 
3933 1 -0.0344369 -0.0521026 0.0596584 0.000116 0.754914 0.0324399 0.435763 2650 
4025 1 -0.0347862 -0.0482386 0.0594554 0.000116 -1.53629 -0.488912 -0.898851 2650 
1865 1 -0.031294 -0.0559928 0.0614483 4.2e-05 -12.8869 0.789568 -6.56293 2650 
578 1 -0.0298297 -0.0501313 0.0617506 0.000423 -1.93426 0.230819 -0.934379 2650 
1185 1 -0.0292787 -0.0614966 0.0623521 0.000116 -2.79769 -0.934816 -1.31371 2650 
323 1 -0.0274319 -0.0590578 0.0632669 4.2e-05 -13.0008 0.730736 -5.63699 2650 
4345 1 -0.0200624 -0.0616565 0.0658978 0.000116 -0.191171 -2.49632 -0.0582015 2650 
1912 1 -0.0124429 -0.0454981 0.0674398 0.000423 1.66836 0.187466 0.307818 2650 
2451 1 -0.0059468 -0.0533277 0.0683198 0.000423 3.1046 0.808659 0.270236 2650 
3154 1 -0.00941359 -0.0451062 0.0682379 0.000116 -0.880304 0.204071 -0.12144 2650 
3707 1 -0.00382444 -0.0527109 0.0687779 0.000116 -5.35576 -0.986084 -0.29781 2650 
2148 1 -0.00185702 -0.00743578 -0.0688591 0.000116 -0.711868 -0.913492 0.019198 2650 
2803 1 -0.00883804 -0.0398122 -0.0683148 0.000116 1.40709 -2.23992 -0.182039 2650 
902 1 -0.00949873 -0.037646 -0.067917 0.000423 -1.81897 -0.258683 0.254397 2650 
1593 1 -0.00883692 -0.0284367 -0.0680063 0.000423 -2.55251 0.367935 0.331679 2650 
1239 1 -6.51853e-05 -0.0274502 -0.068578 0.000423 2.19195 0.168155 -0.00208351 2650 
3357 1 -0.00764572 -0.0224467 -0.0684585 0.000116 -1.12528 0.431838 0.125676 2650 
1050 1 -0.0032232 -0.0209338 -0.0685652 0.000116 -4.35278 -4.52034 -3.52796 2650 
2605 1 -0.00550585 -0.00862102 -0.0686637 0.000116 -3.5554 -0.279477 0.285092 2650 
223 1 -0.000230308 -0.000885237 -0.0683458 0.000656 -1.96594 -0.0402062 0.00662473 2650 
2098 1 -0.00884505 -0.0340013 -0.0677715 0.000656 -2.60558 0.0768623 0.340062 2650 
577 1 -0.0124417 -0.025987 -0.06744 0.000423 -2.71076 0.355552 0.500096 2650 
1218 1 -0.0103375 -0.0248972 -0.0675599 0.000656 -2.26572 -0.309808 0.346683 2650 
1296 1 -0.013633 -0.0141005 -0.0675216 0.000116 -1.30981 -0.332783 0.264457 2650 
3649 1 -0.0106975 -0.000591277 -0.0677386 0.000423 -2.04992 -0.0346314 0.323732 2650 
1107 1 -0.0161956 -0.0205725 -0.0664001 0.000656 -1.53061 -0.0450239 0.360548 2650 
3219 1 -0.0170366 -0.0198201 -0.0664282 0.000423 -1.43691 -0.048584 0.368033 2650 
2116 1 -0.0156478 -0.0195626 -0.066769 0.000423 -3.15661 -0.568341 0.739776 2650 
2019 1 -0.0160511 -0.0156484 -0.0666732 0.000423 -2.61061 -0.353011 0.628486 2650 
3947 1 -0.0147865 -0.0155366 -0.0667276 0.000656 -2.74318 -0.0428486 0.607876 2650 
817 1 -0.0143497 -0.0141704 -0.0670599 0.000423 -1.51788 0.00390278 0.324801 2650 
1606 1 -0.0178267 -0.00802966 -0.0665374 0.000116 -2.77612 0.725068 0.743779 2650 
3426 1 -0.0186195 -0.0261509 -0.066002 0.000423 0.306025 0.562707 -0.0863312 2650 
2246 1 -0.0180308 -0.00621358 -0.0661653 0.000423 -1.46031 -0.120676 0.39795 2650 
3633 1 -0.0217579 -0.0307175 -0.065035 0.000423 -2.47269 0.311945 0.827256 2650 
3013 1 -0.0204757 -0.0200121 -0.0654499 0.000423 -1.84301 -0.897991 0.574698 2650 
596 1 -0.02122 -0.0194329 -0.0652123 0.000423 -1.66795 0.738276 0.538672 2650 
2527 1 -0.0194913 -0.0187832 -0.0650143 4.2e-05 -6.37833 -3.8625 2.14528 2650 
443 1 -0.0200941 -0.0117638 -0.0653256 0.000656 -2.76744 -0.128877 0.851261 2650 
1135 1 -0.0220514 -0.00810772 -0.064936 0.000423 -1.46599 0.15037 0.49783 2650 
1055 1 -0.022107 -0.00650307 -0.0652404 0.000116 -1.84455 -0.0618723 0.625032 2650 
1461 1 -0.0226405 -0.00424003 -0.064733 0.000423 -1.83293 0.491227 0.641072 2650 
3385 1 -0.0242826 -0.0398838 -0.0644622 0.000116 2.17213 -0.947653 -0.818228 2650 
3514 1 -0.0231859 -0.0255127 -0.0642932 0.000656 -0.685425 0.124763 0.247183 2650 
3096 1 -0.0230755 -0.0239183 -0.0645792 0.000423 -1.27753 -0.444406 0.456487 2650 
1987 1 -0.0219622 -0.020113 -0.0647212 0.000656 -1.26591 -0.170859 0.427999 2650 
82 1 -0.025334 -0.011984 -0.0640563 0.000116 -1.68743 0.135748 0.667371 2650 
163 1 -0.0241991 -0.00901906 -0.0641666 0.000423 -1.64011 0.433289 0.618536 2650 
419 1 -0.0252141 -0.00810219 -0.0641036 0.000116 -2.81934 -0.131735 1.10894 2650 
3140 1 -0.027424 -0.0397907 -0.0631898 0.000116 -1.23534 -0.190967 0.536128 2650 
3540 1 -0.0249845 -0.0147313 -0.0638651 0.000423 6.29093 1.36269 -2.46106 2650 
3399 1 -0.0283271 -0.0355308 -0.0628712 4.2e-05 -0.752591 0.464661 0.339086 2650 
3729 1 -0.0264048 -0.0324367 -0.0630396 0.000656 -2.0904 0.264504 0.875588 2650 
1323 1 -0.0267036 -0.0206977 -0.0629135 0.000656 0.927976 -0.200926 -0.393879 2650 
1202 1 -0.0283957 -0.00599166 -0.0628402 4.2e-05 0.0654749 -1.50698 -0.0295862 2650 
2238 1 -0.027022 -0.00629986 -0.0630298 0.000423 -1.11441 0.589868 0.477768 2650 
21 1 -0.0272406 -0.00418647 -0.0629357 0.000423 -1.34945 0.482109 0.584086 2650 
186 1 -0.018789 -0.00468445 -0.0630658 0.000116 -3.09206 -0.107646 0.275498 2650 
306 1 -0.0288798 -0.00053877 -0.0625378 0.000116 0.867361 -0.0981506 -0.400545 2650 
2574 1 -0.030103 -0.0314927 -0.0616178 0.000423 -1.74115 -0.127642 0.850629 2650 
3692 1 -0.029464 -0.0219958 -0.0622647 0.000116 -1.23922 0.0183938 0.586406 2650 
42 1 -0.0295605 -0.0120817 -0.06188 0.000423 3.80887 0.839597 -1.81952 2650 
1751 1 -0.030128 -0.000948639 -0.0620283 4.2e-05 -2.35776 -0.0876363 1.1452 2650 
3084 1 -0.0308497 -0.0334005 -0.0609877 0.000656 -1.98437 -0.25198 1.00376 2650 
3079 1 -0.0321698 -0.0318669 -0.0603018 0.000656 -1.98797 -0.0294998 1.06054 2650 
631 1 -0.0336874 -0.00797281 -0.0600848 0.000116 -2.7839 -0.183634 1.56083 2650 
3978 1 -0.0338971 -0.034377 -0.0596149 0.000423 -1.81461 0.0236963 1.03179 2650 
1170 1 -0.0338805 -0.0276316 -0.0599761 0.000116 -0.447433 -0.729685 0.252755 2650 
3089 1 -0.0336126 -0.017564 -0.0597758 0.000423 -2.41649 -0.268446 1.35882 2650 
1076 1 -0.0346089 -0.00790179 -0.0595588 0.000116 -2.77012 -0.174122 1.60969 2650 
3393 1 -0.0316531 -0.00844465 -0.0592813 4.2e-05 -1.46485 -0.304604 3.37931 2650 
2183 1 -0.037533 -0.0264387 -0.0577607 0.000116 -1.69713 -0.398621 1.1028 2650 
2460 1 -0.0363195 -0.0254351 -0.0581708 0.000423 -1.42751 -0.380752 0.891276 2650 
295 1 -0.0382465 -0.00972737 -0.0572907 0.000116 0.16794 2.52039 -0.112114 2650 
1312 1 -0.0394656 -0.00630825 -0.056535 4.2e-05 3.19936 -0.79974 -2.582 2650 
2117 1 -0.038981 -0.00406462 -0.0564219 0.000423 -2.34824 0.0907875 1.62236 2650 
3887 1 -0.0413996 -0.0415416 -0.054672 0.000423 -1.13919 -0.215854 0.846679 2650 
681 1 -0.0413166 -0.0368114 -0.0547347 0.000423 -1.60559 0.16859 1.21198 2650 
50 1 -0.040572 -0.0206722 -0.0552704 0.000423 1.50354 -0.0167971 -1.18428 2650 
2282 1 -0.041468 -0.015561 -0.0550039 0.000116 -2.5426 -0.246519 1.91689 2650 
3069 1 -0.0298805 -0.0209196 -0.0540308 4.2e-05 10.9291 -0.548102 1.11229 2650 
203 1 -0.039857 -0.00525694 -0.0543956 0.000116 -3.94671 -0.122154 -0.294806 2650 
3314 1 -0.0416994 -0.00340094 -0.0544437 0.000423 -0.848458 1.11563 0.649849 2650 
322 1 -0.0463877 -0.0314397 -0.0510234 4.2e-05 2.13565 -0.84882 -1.94161 2650 
433 1 -0.0467511 -0.0111066 -0.0506907 4.2e-05 -2.30664 -0.12039 2.12737 2650 
29 1 -0.0471725 -0.028539 -0.0497765 0.000423 -0.821165 1.07558 0.778206 2650 
1378 1 -0.0475061 -0.011869 -0.0498818 0.000116 -2.32018 -0.181556 2.20968 2650 
2232 1 -0.0483286 -0.0394977 -0.0486549 0.000423 -0.834261 0.167089 0.828667 2650 
4016 1 -0.0452126 -0.0384309 -0.0488199 0.000116 1.8841 0.884122 -4.87429 2650 
114 1 -0.048634 -0.00386333 -0.0480202 0.000656 -1.94364 -0.178676 1.96848 2650 
1690 1 -0.0502513 -0.02946 -0.0466664 0.000423 -2.13912 -1.0912 2.30345 2650 
4210 1 -0.0508858 -0.0303993 -0.0459737 0.000423 0.0943836 -0.945813 -0.104468 2650 
3378 1 -0.0514699 -0.0103686 -0.0457807 0.000116 -0.783226 0.285174 0.880556 2650 
4342 1 -0.0513902 -0.00770685 -0.0458702 0.000116 -1.76465 0.314059 1.977 2650 
1914 1 -0.0514358 -0.0260814 -0.0453576 0.000423 -0.262568 -0.0258478 0.297754 2650 
3785 1 -0.0523806 -0.0379038 -0.0447359 0.000116 2.78889 1.66095 -3.26547 2650 
107 1 -0.0524414 -0.00879992 -0.0447784 4.2e-05 -1.96842 0.566138 2.30528 2650 
1640 1 -0.0529233 -0.0040386 -0.0442079 4.2e-05 -0.827581 0.174859 0.990735 2650 
2014 1 -0.0533626 -0.0127864 -0.0430742 0.000423 -1.89634 0.196812 2.34929 2650 
2234 1 -0.0537771 -0.0367914 -0.0425555 0.000423 -1.33642 0.050309 1.68883 2650 
693 1 -0.0537653 -0.0235868 -0.0425705 0.000423 2.31732 2.18331 -2.9267 2650 
4068 1 -0.0554261 -0.0282 -0.0403843 0.000423 -0.858285 -0.235924 1.17797 2650 
940 1 -0.0552471 -0.0207801 -0.0397795 0.000116 -0.428403 -0.637231 1.83009 2650 
2768 1 -0.0556186 -0.00868971 -0.0401189 0.000423 -0.994459 -0.244016 1.37866 2650 
4037 1 -0.0561692 -0.00272885 -0.0398754 0.000116 -1.77572 -0.0698373 2.50132 2650 
3198 1 -0.0566082 -0.0326101 -0.0387099 0.000423 -0.131885 0.261684 0.192864 2650 
2038 1 -0.0578254 -0.0179739 -0.0374332 0.000116 -1.36714 -0.432646 2.11192 2650 
3671 1 -0.0574191 -0.000657952 -0.0374967 0.000423 -0.99601 0.326741 1.5252 2650 
892 1 -0.0579685 -0.00489646 -0.0362058 0.000656 -0.980158 -0.112793 1.56931 2650 
2002 1 -0.0586518 -0.00198024 -0.0355375 0.000423 -1.03096 -0.0540332 1.70151 2650 
197 1 -0.0593281 -0.0137207 -0.0350028 0.000116 1.21839 1.03604 -2.0651 2650 
1964 1 -0.0595747 -0.00223478 -0.0345815 0.000116 -0.989705 0.0533119 1.70499 2650 
2242 1 -0.0591436 -0.00043051 -0.0347129 0.000423 -1.01535 -0.0109154 1.72995 2650 
2132 1 -0.0602513 -0.0175843 -0.0327525 0.000423 1.07005 -0.0257559 -1.96846 2650 
1111 1 -0.0602463 -0.0393023 -0.0322737 0.000656 -1.06402 0.388863 1.98623 2650 
3229 1 -0.0606601 -0.0110829 -0.031989 0.000423 -0.273694 1.21039 0.519 2650 
2821 1 -0.0615799 -0.0403366 -0.0308698 0.000116 -1.30878 -0.304437 2.61079 2650 
4098 1 -0.0611958 -0.0312898 -0.0309519 0.000423 -0.627435 -0.312567 1.24052 2650 
4052 1 -2.71948e-05 -0.0118625 -0.068958 4.2e-05 -3.33849 0.246706 0.00131659 2650 
2827 1 -0.0135697 -0.00394081 -0.0298507 0.000116 -1.891 -0.0986297 -4.15698 2650 
2996 1 -0.062067 -0.01181 -0.0291657 0.000423 -1.07127 0.130534 2.27976 2650 
2245 1 -0.0627415 -0.0207146 -0.027685 0.000423 -1.23005 0.216487 2.78762 2650 
1196 1 -0.0632238 -0.0328825 -0.0273456 0.000116 -0.477309 -0.5607 1.10355 2650 
228 1 -0.0627845 -0.00695124 -0.0270058 0.000656 -1.00239 0.205966 2.33041 2650 
3615 1 -0.0565842 -0.023099 -0.0258347 4.2e-05 -3.08324 -0.428591 -7.80365 2650 
827 1 -0.0550244 -0.000725699 -0.0254884 0.000116 8.01872 -0.362759 -10.133 2650 
3926 1 -0.0535123 -0.000625566 -0.0256322 0.000116 6.96129 -0.292593 -10.4767 2650 
1723 1 -0.0641628 -0.0127416 -0.0250631 0.000116 -0.95368 -0.436055 2.44147 2650 
3779 1 -0.0637856 -0.0104848 -0.0251864 0.000423 -0.928354 -0.18879 2.3511 2650 
208 1 -0.0644215 -0.0278097 -0.0243905 0.000116 0.27156 1.79637 -0.717259 2650 
2765 1 -0.0641706 -0.0262872 -0.0241884 0.000423 -0.5066 0.573993 1.34399 2650 
1792 1 -0.0641613 -0.0156167 -0.0242132 0.000423 -0.760579 0.0128339 2.01542 2650 
2898 1 -0.0645959 -0.0180209 -0.0230287 0.000423 -0.201566 0.104165 0.565396 2650 
1042 1 -0.0644879 -0.0150948 -0.0233294 0.000423 -0.75056 0.33464 2.07472 2650 
38 1 -0.064569 -0.0142489 -0.0231039 0.000423 -0.788566 -0.289349 2.20382 2650 
3261 1 -0.0651232 -0.003336 -0.0224498 0.000116 -0.329973 -0.120867 0.957196 2650 
2480 1 -0.0654441 -0.0252196 -0.0214964 0.000116 -0.222511 0.820316 0.677416 2650 
417 1 -0.0653812 -0.00398712 -0.0216868 0.000116 -1.01713 -0.0190381 3.06643 2650 
338 1 -0.0653388 -0.0219494 -0.0200511 0.000656 -0.645069 0.0946573 2.10204 2650 
2062 1 -0.0659901 -0.0066362 -0.0197569 0.000116 -0.922159 -0.157921 3.08011 2650 
3054 1 -0.0660574 -0.0413468 -0.0195307 0.000116 -0.219161 -1.07633 0.741256 2650 
2192 1 -0.0581873 -0.0204475 -0.0197934 4.2e-05 7.6649 -0.571351 -4.45013 2650 
1177 1 -0.0661109 -0.0157746 -0.0193487 0.000116 -0.774415 -0.610762 2.64603 2650 
2685 1 -0.0658612 -0.0119438 -0.0191114 0.000423 -0.311613 0.538436 1.07387 2650 
3602 1 -0.0660534 -0.00125721 -0.0195442 0.000116 -0.387441 0.154403 1.30943 2650 
4293 1 -0.0659436 -0.00073555 -0.0188253 0.000423 -0.385974 0.378399 1.35204 2650 
615 1 -0.0665619 -0.00332997 -0.0177353 0.000116 -0.37409 0.163287 1.40398 2650 
3470 1 -0.066586 -0.0029771 -0.0176444 0.000116 0.0867694 -0.205144 -0.327448 2650 
689 1 -0.0663411 -0.0211938 -0.0173726 0.000423 0.460297 0.368541 -1.75774 2650 
2530 1 -0.012625 -0.00711633 -0.0172205 0.000656 -1.36733 -0.568376 -1.78285 2650 
437 1 -0.06693 -0.00107518 -0.0166008 4.2e-05 0.068016 -0.228264 -0.274223 2650 
606 1 -0.000183 0.00211569 -0.016592 0.000116 0 -0.011753 0 2650 
1095 1 -0.027857 -0.00380577 -0.0165254 4.2e-05 -4.11505 -0.0794776 -2.44114 2650 
2172 1 -0.00269755 -0.00134417 -0.0163989 0.000116 0.0682862 0.00746542 -0.00852403 2650 
30 1 -0.00120018 -0.000693825 -0.016022 0.000423 -0.0136125 -0.0214967 0.00834717 2650 
2013 1 -0.00289167 0.00294426 -0.0159771 0.000423 -0.00154235 0.00221798 0.00156406 2650 
2301 1 -0.00423448 0.00389539 -0.01632 4.2e-05 -0.00568605 -0.0087003 -0.00683566 2650 
1679 1 -0.00394799 0.00382458 -0.0159527 0.000423 -0.00453172 0.0157125 0.00260684 2650 
2283 1 -0.00352232 0.00382408 -0.0164348 0.000116 -0.00010552 0.00956354 0.000789399 2650 
2520 1 -0.000398394 0.0048993 -0.016577 4.2e-05 -0.0125271 0.0201098 0.013978 2650 
3121 1 -0.000606883 0.00517639 -0.0161977 0.000423 0.0292552 0.00121421 5.81941e-05 2650 
978 1 -0.00345061 0.00650984 -0.0163113 0.000116 0.0180122 -0.00353228 -0.00159853 2650 
3934 1 -0.001977 0.00687769 -0.016218 0.000116 0 -0.011753 0 2650 
3177 1 -0.000372329 0.008684 -0.0159172 4.2e-05 0.00917698 -0.00185525 -0.00666376 2650 
1483 1 -0.000401172 0.00967208 -0.015991 0.000423 -0.00134867 0.0112238 -0.0085204 2650 
3007 1 -0.00245687 0.0109659 -0.0162505 0.000423 -0.00351627 -0.00337698 0.014455 2650 
3500 1 -0.00176497 0.0107663 -0.0158025 4.2e-05 -0.0454796 -0.00333034 0.0313479 2650 
371 1 -0.000542426 0.0105448 -0.0159063 0.000423 -0.00202239 0.0122439 -0.00806147 2650 
188 1 -0.00202089 0.0117896 -0.01645 0.000116 -0.0148612 0.0228045 0.00418427 2650 
3644 1 -0.00115467 0.0129095 -0.0158325 0.000423 -0.000399523 0.00418678 0.0157329 2650 
2713 1 -0.000731509 0.0131351 -0.0163131 0.000116 0.00037122 0.035974 0.00535071 2650 
2924 1 -0.00529329 0.0142279 -0.0159537 0.000116 -0.059039 0.0353164 0.00422158 2650 
4010 1 -0.00524088 0.0394034 -0.0158084 0.000116 -0.0944465 0.099748 0.0197066 2650 
269 1 -0.000521816 -0.00338808 -0.0153424 0.000423 -0.0339787 -0.0462119 -0.822278 2650 
509 1 -0.00746948 -0.000228608 -0.0150449 0.000116 -0.00480979 -0.0076817 0.0108723 2650 
736 1 -0.00625726 -0.000445572 -0.0152854 0.000116 -0.0307431 -0.0170391 0.0144389 2650 
2399 1 -0.002418 0.00232969 -0.015541 0.000116 0 -0.011753 0 2650 
3637 1 -0.00481547 0.00330644 -0.0156385 0.000423 -0.0121297 0.0118194 -0.00377228 2650 
4227 1 -0.000546027 0.00516608 -0.0151145 0.000116 0.00143204 -0.0228975 -0.0290312 2650 
1204 1 -0.00565846 0.00787912 -0.0156214 4.2e-05 -0.00168623 -0.015066 0.227602 2650 
2438 1 -0.00587443 0.00726883 -0.0150581 0.000423 -0.00468347 -0.000292455 -0.00123863 2650 
3830 1 -0.006879 0.00842969 -0.015411 4.2e-05 0 -0.011753 0 2650 
233 1 -0.00417647 0.0091571 -0.0151894 0.000423 0.0114684 -0.00558491 0.0116559 2650 
289 1 -0.00290823 0.0097136 -0.0156733 0.000116 -0.00850769 0.000708308 0.0302001 2650 
2969 1 -0.00210827 0.00978272 -0.0150949 0.000656 -0.00775713 0.0181674 -1.8219e-05 2650 
938 1 -0.00143754 0.009889 -0.0155482 0.000116 -0.00119823 0.000558801 -0.00633771 2650 
2793 1 -0.000740144 0.00983546 -0.0151974 0.000423 -0.00879885 0.0775161 -0.0152112 2650 
1839 1 -0.00176251 0.0146764 -0.0151063 0.000116 -0.0676852 0.0211351 0.0188737 2650 
2585 1 -0.00014186 0.0217248 -0.0155248 0.000116 -0.0221426 0.0759057 0.0070692 2650 
2179 1 -0.00637995 0.0221791 -0.0155065 0.000116 -0.831703 -0.196221 0.344433 2650 
148 1 -0.00529491 0.0319549 -0.0155965 0.000423 -0.145516 -0.155086 0.0592808 2650 
3279 1 -0.000944668 0.0449493 -0.0157072 0.000116 0.0698602 -0.118112 -0.0910458 2650 
945 1 -0.00684291 0.0489684 -0.0151468 0.000116 -0.192436 -0.107086 0.0844573 2650 
2021 1 -0.00549032 0.0541875 -0.0152684 0.000423 0.132959 -0.0939981 -0.0898992 2650 
1206 1 -0.0563748 -0.0218685 -0.0148078 4.2e-05 5.82583 -1.13473 -3.9446 2650 
4069 1 -0.0670656 -0.0092925 -0.0143231 0.000423 -0.459713 0.123698 2.15253 2650 
2666 1 -0.00566535 -0.00254676 -0.0142806 0.000423 0.0429038 -0.00888448 0.00629481 2650 
1053 1 -0.007469 -0.00151231 -0.014946 0.000116 0 -0.011753 0 2650 
1991 1 -0.00695012 0.000337191 -0.014467 0.000656 -0.019376 -0.00203791 0.00870126 2650 
3239 1 -0.00567761 0.00130066 -0.014607 0.000116 -0.0248133 -0.00752354 0.0120924 2650 
857 1 -0.00269502 0.00190007 -0.0149429 0.000116 -0.0623021 0.0193526 0.00200378 2650 
220 1 -0.00345736 0.00317821 -0.0142447 4.2e-05 0.00197382 0.00663681 0.00671825 2650 
1388 1 -0.0044321 0.00540225 -0.0144506 0.000116 -0.039288 0.0021603 0.0169103 2650 
1611 1 -0.0047096 0.00550453 -0.0147985 0.000116 0.0134772 -0.0209987 -0.0751807 2650 
3365 1 -0.002315 0.00475569 -0.014552 0.000116 0 -0.011753 0 2650 
581 1 -0.00563356 0.00802561 -0.0145824 0.000423 0.000441693 0.00100922 0.00165067 2650 
2092 1 -0.00665724 0.00913749 -0.0146748 0.000656 -0.00167296 0.00263094 0.0238503 2650 
86 1 -0.00351289 0.00993496 -0.014996 0.000116 -0.0196067 0.0126222 0.000798653 2650 
1617 1 -0.000901446 0.0102557 -0.0148156 0.000116 0.00511482 0.0710113 0.047396 2650 
70 1 -0.00652936 0.0107242 -0.0142365 0.000116 0.0420474 0.0335815 -0.0676972 2650 
2182 1 -0.000713929 0.0109196 -0.0145074 0.000116 -0.0273815 0.022445 -0.0411396 2650 
1228 1 -0.00166957 0.0114031 -0.014967 0.000423 -0.0026547 0.0243513 0.000515369 2650 
4231 1 -0.00124482 0.0179325 -0.014532 0.000116 -0.0134934 0.0153003 0.0304581 2650 
2466 1 -0.00743681 0.0200888 -0.0143536 0.000423 0.048327 0.0396991 -0.0547289 2650 
2084 1 -0.00874617 0.0318365 -0.0144442 4.2e-05 0.307681 0.103105 -0.161547 2650 
897 1 -0.0671022 -0.0245443 -0.0141507 0.000423 -0.205875 0.591085 0.976254 2650 
3599 1 -0.00166022 -0.00124043 -0.0135615 0.000116 0.00758272 -0.00512374 -0.0536854 2650 
2332 1 -0.00531465 -0.00054538 -0.0136015 0.000423 -0.0114447 -0.00779769 0.00753018 2650 
2922 1 -0.00740721 0.00138188 -0.0138328 0.000116 -0.00925852 -0.000802711 0.00675368 2650 
150 1 -0.00810343 0.00309035 -0.0140804 0.000423 -0.0542472 0.016714 0.0257745 2650 
2512 1 -0.00787313 0.00265053 -0.0134676 0.000116 0.018779 -0.0192413 0.00230208 2650 
3587 1 -0.00850763 0.00364691 -0.0137107 0.000116 -0.0579635 0.0255056 0.0285778 2650 
1684 1 -8.33416e-05 0.00319847 -0.0138062 0.000423 0.0272309 -0.0194031 -0.0266412 2650 
2913 1 -0.00901615 0.00476038 -0.0137686 0.000116 -0.0140945 -0.0228944 -0.00540615 2650 
1192 1 -0.00661617 0.00522063 -0.0140835 0.000116 -0.0160738 0.0171838 -0.0228619 2650 
2344 1 -0.000411702 0.00521379 -0.0141675 0.000423 0.00575909 -0.0231993 -0.0217047 2650 
2322 1 -0.0089824 0.00614842 -0.0134965 0.000656 -0.00299145 -0.013582 0.00409796 2650 
2918 1 -0.0071926 0.00626268 -0.0138595 0.000116 0.0149777 0.0131491 0.0124233 2650 
1288 1 -0.002467 0.00605869 -0.014044 0.000116 0 -0.011753 0 2650 
3515 1 -0.00809218 0.00699603 -0.0139607 0.000656 -0.00927244 -0.00874495 -0.000839897 2650 
963 1 -0.0070435 0.0070632 -0.013913 0.000116 0.00350227 -0.00324664 0.0156587 2650 
1618 1 -0.00994313 0.00746853 -0.0135558 0.000116 0.0059414 0.00192455 -0.00369393 2650 
1250 1 -0.00860407 0.00784991 -0.0134353 0.000423 -0.00730125 -0.00574558 -0.000431452 2650 
4257 1 -0.00796688 0.00784276 -0.0134873 0.000116 -0.00578911 -0.00907208 0.00958653 2650 
2222 1 -0.000748095 0.00771069 -0.0136605 0.000423 0.00109584 0.00172293 0.0219135 2650 
1769 1 -0.00763132 0.00852564 -0.0140023 0.000656 -0.0172586 -0.00849647 0.00218183 2650 
2313 1 -0.00381364 0.00792223 -0.0142032 0.000656 0.0121795 0.0249345 0.010824 2650 
1237 1 -0.00932136 0.00904904 -0.0134865 0.000423 0.00205875 0.0105454 -1.45263e-05 2650 
4190 1 -0.00865273 0.00887461 -0.0140148 0.000423 -0.0126527 0.00700796 0.00757002 2650 
1476 1 -0.0072594 0.00991204 -0.0134365 0.000423 -0.00473027 0.00118609 -0.000138689 2650 
1827 1 -0.00638971 0.00994853 -0.0137895 0.000116 0.0445821 -0.0304485 -0.00868089 2650 
1409 1 -0.00044 0.00983869 -0.013868 0.000116 0 -0.011753 0 2650 
2781 1 -0.00601792 0.0104671 -0.0141194 0.000423 -0.00287998 0.011096 -0.0317373 2650 
3150 1 -0.000810817 0.0107723 -0.0138243 0.000116 -0.0182263 -0.0087302 -0.0269448 2650 
3163 1 -0.0079457 0.0124565 -0.0138702 0.000116 -0.0370466 0.0283549 -0.0433006 2650 
2497 1 -0.00925091 0.0224518 -0.0140677 0.000116 0.26823 0.110209 -0.140993 2650 
1195 1 -0.00737251 0.0289938 -0.0138892 0.000116 0.0557766 0.0782116 -0.0138054 2650 
4234 1 -0.0042375 0.0296136 -0.0139927 0.000116 -0.0277623 0.0670651 -0.0707711 2650 
2643 1 -0.00676396 0.0313867 -0.0135759 0.000656 -0.0823633 0.0688822 0.0201377 2650 
1124 1 -0.00268091 0.0363418 -0.0138446 0.000423 0.115227 0.0704534 -0.0460588 2650 
4097 1 -0.00753255 -0.00317441 -0.0132139 0.000423 0.0222564 -0.0142204 -0.0225559 2650 
3576 1 -0.00494047 -0.00147868 -0.0130731 0.000116 0.0561059 0.00120064 -0.0311085 2650 
287 1 -0.0676903 -0.000546317 -0.0127687 0.000116 -0.362838 0.0802065 1.9235 2650 
3191 1 -0.0088688 -0.000389296 -0.0127482 0.000656 -0.0183475 -0.00795438 -0.00635009 2650 
623 1 -0.00766997 -0.000210541 -0.0133521 0.000116 -0.0192086 -0.00896372 0.0230222 2650 
2525 1 -0.004063 0.000285686 -0.013231 4.2e-05 0 -0.011753 0 2650 
4126 1 -0.00709408 0.000879558 -0.0129062 0.000116 -0.0261531 0.0084042 0.00402279 2650 
2619 1 -0.00598386 0.00101834 -0.0128029 0.000116 -0.0137973 -0.0204082 0.00531131 2650 
4165 1 -0.00522432 0.00123678 -0.0129825 0.000656 -0.00295906 -0.0330191 0.0101422 2650 
3880 1 -0.0103293 0.00207235 -0.0129063 0.000423 -0.0020648 -0.00583391 0.00454369 2650 
2609 1 -0.00886 0.00182569 -0.013248 0.000116 0 -0.011753 0 2650 
676 1 -0.00456323 0.00235301 -0.0133695 0.000423 -0.0128147 0.00889048 0.0204924 2650 
3917 1 -0.003984 0.00258669 -0.012703 0.000116 0 -0.011753 0 2650 
2059 1 -0.003583 0.00279569 -0.012756 0.000116 0 -0.011753 0 2650 
2474 1 -0.00200698 0.0029902 -0.0130549 0.000423 0.0307748 -0.0136667 -0.043701 2650 
3316 1 -0.009411 0.0032076 -0.0130725 0.000423 -0.00544519 -0.0183171 -0.00879554 2650 
1171 1 -0.00753917 0.00322448 -0.013005 0.000116 0.0131753 -0.0110464 0.0150896 2650 
1032 1 -0.00570151 0.00317535 -0.0134016 0.000423 0.0299121 -0.00820922 0.0127278 2650 
889 1 -0.0030755 0.00357131 -0.0126372 0.000656 0.0239908 0.0133229 -0.0547828 2650 
4300 1 -0.000741605 0.00347728 -0.0133115 0.000423 0.0157414 0.0249973 -0.0399245 2650 
3787 1 -0.00665812 0.00414322 -0.01305 0.000116 -0.0024271 -0.00223267 -0.0195234 2650 
3446 1 -0.00118795 0.00428212 -0.0129337 0.000423 0.014297 -0.016402 -0.00312272 2650 
763 1 -0.00642437 0.00485548 -0.0126325 4.2e-05 -0.0107376 -0.0192397 -0.014763 2650 
1427 1 -0.002948 0.00512669 -0.013376 4.2e-05 0 -0.011753 0 2650 
3362 1 -0.00262966 0.0048576 -0.0126871 0.000116 0.000350619 -0.00253681 -0.00404217 2650 
2912 1 -0.00545181 0.00611278 -0.0131398 0.000116 0.00196064 0.0151142 0.00117299 2650 
445 1 -0.0100305 0.00706032 -0.0128333 0.000656 -0.00148386 -0.000427463 0.00552151 2650 
3259 1 -0.00886386 0.00669293 -0.0127227 0.000116 0.00136236 -0.0113258 0.00321419 2650 
4179 1 -0.0078878 0.00670863 -0.0129111 0.000423 -0.0070231 -0.0226882 -0.00131956 2650 
1795 1 -0.00899237 0.0074227 -0.0127394 0.000423 -0.00333027 -0.00705618 0.0037936 2650 
3364 1 -0.00664463 0.00726433 -0.0129303 0.000116 -0.00179506 0.0163753 -0.0232219 2650 
2483 1 -0.0071957 0.00841009 -0.012994 0.000116 0.0222317 -0.00887276 -0.000700143 2650 
205 1 -0.000735358 0.00793287 -0.0131368 0.000116 0.00114706 0.000219934 0.0269812 2650 
3847 1 -0.00943776 0.0100102 -0.0129708 0.000656 0.00218348 0.0145646 -0.00497691 2650 
2453 1 -0.00618958 0.0102218 -0.0131243 0.000423 0.00287214 0.0261989 -0.0126472 2650 
1775 1 -0.00824127 0.010645 -0.0130925 0.000423 -0.000575409 -0.0115316 -0.00160845 2650 
3471 1 -0.00795544 0.0114853 -0.0127718 0.000116 0.00654915 0.0415659 -0.0136084 2650 
3838 1 -0.00563508 0.0118299 -0.0130185 0.000656 0.0059045 0.0308137 -0.0288407 2650 
1986 1 -0.00225482 0.0111328 -0.0127688 0.000656 0.00762539 0.0149956 0.0116892 2650 
3145 1 -0.00766358 0.012467 -0.0126832 0.000116 -0.0186098 0.0309384 -0.020461 2650 
1802 1 -0.00364116 0.0124224 -0.0131643 0.000423 0.00500259 -0.000364755 -0.0111755 2650 
949 1 -0.00817639 0.0136146 -0.0133141 0.000116 -0.0176518 0.0277962 -0.00593252 2650 
478 1 -0.00622434 0.01518 -0.0130763 0.000423 0.0184535 0.00116934 0.020279 2650 
1143 1 -0.000129406 0.0155492 -0.0131271 0.000423 0.0070315 0.0110531 -0.00616027 2650 
93 1 -0.0103366 0.016601 -0.0127051 0.000116 0.0573325 0.04651 -0.0562898 2650 
1717 1 -0.00288246 0.025422 -0.0133765 0.000116 -0.014717 0.0706098 -0.0348682 2650 
352 1 -0.00106484 0.0318143 -0.01266 0.000423 0.0736471 -0.159457 0.0441779 2650 
2863 1 -0.00483527 0.0477974 -0.013301 0.000656 0.0278245 0.133951 -0.121512 2650 
1994 1 -0.0674421 -0.0219479 -0.0124302 0.000423 -0.47739 0.532216 2.59015 2650 
1763 1 -0.001143 -0.00302831 -0.012442 0.000656 0 -0.011753 0 2650 