ITEM: TIMESTEP
5766132
ITEM: NUMBER OF ATOMS
4350
ITEM: BOX BOUNDS ff ff ff
-0.15 0.15
-0.15 0.06
-0.15 0.15
ITEM: ATOMS id type x y z radius vx vy vz density 
1170 1 -0.00382643 -0.0597277 -0.0687778 0.000116 2.07524 -4.77908 -0.115455 2650 
3577 1 -0.00510119 -0.0481122 -0.068696 0.000116 -3.12717 -0.780781 0.273136 2650 
2457 1 -0.00456726 -0.0477852 -0.0684258 0.000423 -2.97928 -0.212383 0.198925 2650 
1961 1 -0.0189547 -0.0501582 -0.0662249 0.000116 1.92727 0.500139 -0.551617 2650 
1051 1 -0.0295634 -0.062684 -0.0622176 0.000116 5.02531 5.35503e-09 -2.38783 2650 
2274 1 -0.0318022 -0.0551582 -0.0611036 0.000116 6.03523 0.339626 -3.14112 2650 
4139 1 -0.0314776 -0.0546523 -0.0612714 0.000116 -1.08628 0.261863 0.558065 2650 
3308 1 -0.0357987 -0.0607983 -0.0584928 0.000423 -2.18873 -0.112904 1.33954 2650 
2855 1 -0.0359202 -0.0561714 -0.0588638 4.2e-05 -1.21741 0.137563 0.742894 2650 
4331 1 -0.0449391 -0.0597277 -0.0521965 0.000116 -0.503509 0.834898 0.279986 2650 
4150 1 -0.045694 -0.0479597 -0.0515469 0.000116 1.00646 0.710002 -0.892184 2650 
1563 1 -0.0516897 -0.0506691 -0.0450681 0.000423 -2.22641 0.638136 2.55353 2650 
1417 1 -0.0567547 -0.0550495 -0.0390375 0.000116 -1.24934 -0.0632923 1.81635 2650 
2256 1 -0.058682 -0.0507254 -0.0360756 0.000116 0.289066 -0.582324 -0.470207 2650 
2928 1 -0.0616189 -0.0470309 -0.0307921 0.000116 6.14 1.12565 -12.2869 2650 
3425 1 -0.0625722 -0.062291 -0.0280654 0.000423 0.999977 0.00561733 -2.22946 2650 
19 1 -0.0647299 -0.0605422 -0.0226493 0.000423 0.313998 0.210286 -0.89738 2650 
3918 1 -0.0622784 -0.0555823 -0.02272 0.000116 0.253135 -7.15554 -0.648167 2650 
3692 1 -0.0677132 -0.0508152 -0.0126471 0.000116 0.0994161 0.243247 -0.532278 2650 
4316 1 -0.0678123 -0.0576726 -0.0102195 0.000423 -0.0839992 0.429833 0.557384 2650 
649 1 -0.0688604 -0.0587385 -0.00180818 0.000116 0.0385301 0.0556582 -1.46733 2650 
200 1 -0.0688771 -0.062684 0.000989981 0.000116 -0.231721 1.28306e-07 -16.1218 2650 
2083 1 -0.0649807 -0.0532785 0.0230806 4.2e-05 0.227975 0.0112486 0.641835 2650 
2395 1 -0.0596325 -0.0462439 0.026146 0.000116 -2.47947 -0.384033 -4.42878 2650 
2612 1 -0.0603642 -0.0519322 0.0331841 0.000116 -0.983667 0.590943 -1.78936 2650 
854 1 -0.0583763 -0.0545418 0.0365684 0.000116 -8.30754 1.20697 -13.2618 2650 
2790 1 -0.0541513 -0.0512481 0.0420783 0.000423 1.48753 -0.067494 1.91434 2650 
3785 1 -0.0544881 -0.0498679 0.0421435 0.000116 -2.13463 0.838015 -2.7599 2650 
1060 1 -0.0546019 -0.049557 0.0419959 0.000116 1.88665 -0.475842 2.45297 2650 
2954 1 -0.0515568 -0.0569781 0.0456827 0.000116 -0.806248 -0.939663 -0.909919 2650 
1208 1 -0.0458007 -0.052362 0.051551 4.2e-05 0.878989 0.434136 0.780943 2650 
3348 1 -0.0449716 -0.055556 0.0521784 0.000116 -0.173899 -1.02977 -0.14988 2650 
921 1 -0.0422772 -0.0453913 0.0539962 0.000423 1.9111 -0.324584 1.49633 2650 
1239 1 -0.0323382 -0.0586269 0.0604747 0.000423 1.32509 -0.149236 0.708581 2650 
3331 1 -0.0315546 -0.0513445 0.0608872 0.000423 2.25057 0.360823 1.16635 2650 
3038 1 -0.0244255 -0.0542783 0.0644082 0.000116 1.48955 -1.67795 0.564883 2650 
689 1 -0.0203819 -0.0622614 0.0654792 0.000423 -0.0688809 0.0093818 -0.0213949 2650 
2160 1 -0.0129389 -0.0584571 0.0652856 0.000116 1.49233 1.77311 2.36875 2650 
2667 1 -0.0148158 -0.059143 0.0669585 0.000423 1.44199 0.343698 0.319066 2650 
575 1 -0.0138667 -0.0594655 0.0671615 0.000423 1.05442 -0.907037 0.217703 2650 
758 1 -0.014326 -0.0527762 0.067378 0.000116 3.49078 1.27543 0.742215 2650 
3957 1 -0.0097132 -0.0473531 0.0676525 0.000656 2.10736 0.318289 0.302563 2650 
3531 1 -0.00556992 -0.0560706 0.0683515 0.000423 2.06313 -0.376075 0.168123 2650 
2139 1 -0.00880976 -0.0466286 0.0680099 0.000423 2.51409 0.0416164 0.325664 2650 
2559 1 -0.00796758 -0.0465839 0.0681137 0.000423 2.55066 -0.180189 0.298365 2650 
343 1 -0.0031992 -0.0458178 0.0685034 0.000423 2.56395 0.398654 0.11974 2650 
4133 1 -0.00820324 -0.0451021 0.0683939 0.000116 1.82646 0.776506 0.219066 2650 
3366 1 -0.00396342 -0.0306727 -0.06877 0.000116 -1.2418 -0.37772 0.0715688 2650 
2167 1 -0.00182934 -0.02975 -0.0688598 0.000116 -2.38168 -0.550508 0.0632722 2650 
1960 1 -0.00330126 -0.0223941 -0.068805 0.000116 -1.98218 1.17996 0.095105 2650 
3786 1 -0.00339081 -0.0121734 -0.0688006 0.000116 -3.67886 -0.0644093 0.181311 2650 
3652 1 -0.00437161 -0.0393916 -0.0684386 0.000423 -1.52436 0.459532 0.0973708 2650 
1687 1 -0.00807814 -0.0343611 -0.0681006 0.000423 -2.46615 0.260296 0.292536 2650 
2224 1 -0.00730325 -0.0260263 -0.0681881 0.000423 -2.51908 -0.135583 0.269805 2650 
375 1 -0.00686948 -0.0248626 -0.0682335 0.000423 -2.48185 -0.0685959 0.226374 2650 
2430 1 -0.00582419 -0.0246385 -0.0680975 0.000656 -2.45309 0.00603468 0.217043 2650 
1669 1 -0.0066726 -0.0238478 -0.0682527 0.000423 -2.45202 0.150582 0.239717 2650 
3339 1 -0.00819648 -0.0183034 -0.0680865 0.000423 -2.53485 -0.365087 0.305154 2650 
35 1 -0.000929469 -0.0184563 -0.0685718 0.000423 -2.41759 0.0991984 0.0327696 2650 
3845 1 -0.00277636 -0.0144078 -0.0682898 0.000656 -2.74054 0.51929 0.111418 2650 
688 1 -0.00656214 -0.0113164 -0.0682634 0.000423 -2.2693 0.319192 0.218147 2650 
1071 1 -0.00690825 -0.0106055 -0.0685368 0.000116 -3.01085 0.479538 0.303482 2650 
3351 1 -0.00746879 -0.00774222 -0.068478 0.000116 -3.14901 -0.194117 0.343457 2650 
811 1 -0.00707815 -0.00545944 -0.0682118 0.000423 -2.73327 0.566682 0.283624 2650 
1752 1 -0.00318344 -0.00440372 -0.068237 4.2e-05 -3.03291 -0.0952261 -2.8791 2650 
2000 1 -0.00702925 -0.00263308 -0.0682168 0.000423 -0.619343 0.225412 0.0638187 2650 
4037 1 -0.0122522 -0.043719 -0.0677857 0.000116 -1.83842 1.47026 0.332292 2650 
4016 1 -0.00634144 -0.0427117 -0.0676426 0.000116 0.645831 -0.356113 -1.19105 2650 
3540 1 -0.011795 -0.041599 -0.0675374 0.000423 -1.37706 -0.0828979 0.666 2650 
3409 1 -0.00872055 -0.0352058 -0.0677876 0.000656 -2.60702 0.333915 0.33538 2650 
3891 1 -0.0113193 -0.0102157 -0.0676375 0.000423 -3.12029 -0.344413 0.522197 2650 
1675 1 -0.0113768 -0.000659352 -0.0676278 0.000423 -2.21939 -0.0534445 0.373362 2650 
1500 1 -0.00821677 -0.0123225 -0.0669182 0.000116 -2.7148 -0.556536 2.82031 2650 
3945 1 -0.0162624 -0.00340169 -0.0670124 4.2e-05 -4.03458 -0.121943 0.961359 2650 
2846 1 -0.0177279 -0.00179227 -0.0666403 4.2e-05 -2.39788 -0.0983108 0.637894 2650 
4338 1 -0.0195974 -0.0206814 -0.0659579 0.000116 -1.26033 -0.291966 0.0683227 2650 
1587 1 -0.022514 -0.0344421 -0.0647771 0.000423 -0.501996 -0.722981 0.174474 2650 
2074 1 -0.0215099 -0.016013 -0.0654396 0.000116 -3.01116 -0.2321 0.989764 2650 
2664 1 -0.0218643 -0.0153084 -0.0649993 0.000423 -2.99373 -0.165695 1.00702 2650 
4204 1 -0.020279 -0.00908881 -0.0655112 0.000423 -2.91057 -0.164773 0.900969 2650 
1870 1 -0.0233092 -0.00577652 -0.0648991 4.2e-05 -2.11884 -0.0189407 0.761005 2650 
3574 1 -0.0236294 -0.0216408 -0.0647045 0.000116 -2.80905 0.122498 1.02583 2650 
579 1 -0.0232091 -0.0145173 -0.0645313 0.000423 -3.04019 -0.377646 1.09342 2650 
2317 1 -0.023892 -0.0101247 -0.0640342 0.000656 -2.22599 0.393904 0.830546 2650 
468 1 -0.0256926 -0.0384592 -0.0635833 0.000423 -2.10239 0.526313 0.849526 2650 
2680 1 -0.0254711 -0.0248846 -0.0636724 0.000423 -2.54848 -0.417605 1.01948 2650 
1943 1 -0.0267325 -0.00665816 -0.0634854 0.000116 -3.13561 0.220996 1.32035 2650 
3543 1 -0.0280224 -0.0282992 -0.0625915 0.000423 -2.4299 0.139959 1.08787 2650 
1794 1 -0.0280788 -0.0124268 -0.0625662 0.000423 -2.60937 -0.0822499 1.17105 2650 
491 1 -0.02795 -0.0112418 -0.0626239 0.000423 -2.65666 -0.0166427 1.18571 2650 
1537 1 -0.0276702 -0.001087 -0.0629926 4.2e-05 4.369 -0.236733 0.678082 2650 
691 1 -0.0298914 -0.0298608 -0.0617208 0.000423 -2.69426 0.0701322 1.30483 2650 
2208 1 -0.0288637 -0.0285858 -0.0619524 0.000656 -2.40448 0.130202 1.12025 2650 
1833 1 -0.0297758 -0.0271828 -0.0621162 0.000116 -2.5252 -0.270353 1.21047 2650 
1453 1 -0.029968 -0.0181698 -0.0616837 0.000423 -2.78123 -0.135052 1.35122 2650 
3874 1 -0.0289358 -0.0186504 -0.0621745 0.000423 -2.75265 -0.103213 1.28107 2650 
2418 1 -0.0297319 -0.0175909 -0.0622191 4.2e-05 -2.83599 -0.0103764 1.3552 2650 
1325 1 -0.0293378 -0.011933 -0.0617292 0.000656 -2.17255 0.254886 1.03254 2650 
1207 1 -0.0297742 -0.00624288 -0.0621989 4.2e-05 -1.86779 -0.310497 0.8941 2650 
636 1 -0.0301169 -0.00527044 -0.0619515 0.000116 -2.96779 -0.203389 1.44275 2650 
1372 1 -0.0310146 -0.0333401 -0.0611641 0.000423 -2.42365 -0.062272 1.22896 2650 
753 1 -0.0314088 -0.0284193 -0.0613067 0.000116 -2.29539 -0.31466 1.17598 2650 
3527 1 -0.0310864 -0.0273793 -0.0611277 0.000423 -2.28118 -0.237574 1.16009 2650 
1990 1 -0.030689 -0.0263381 -0.0610688 0.000656 -2.59764 -0.0123338 1.30539 2650 
4323 1 -0.0315485 -0.0252965 -0.0608904 0.000423 -2.52352 0.309127 1.30749 2650 
1433 1 -0.0301585 -0.0251488 -0.0613325 0.000656 -2.51884 -0.0381159 1.23856 2650 
3815 1 -0.0309295 -0.0111716 -0.0615499 0.000116 -2.94786 0.361698 1.48133 2650 
1912 1 -0.0330631 -0.0388108 -0.0600814 0.000423 -2.08187 0.0222615 1.14566 2650 
1503 1 -0.0335188 -0.00235152 -0.060179 0.000116 -2.3154 -0.141764 1.28964 2650 
935 1 -0.0339585 -0.034501 -0.05958 0.000423 -1.79951 -1.06722 1.02566 2650 
4138 1 -0.0340383 -0.00720186 -0.0598867 0.000116 -3.13027 0.151075 1.77918 2650 
2211 1 -0.0350279 -0.0400305 -0.0586878 0.000656 -2.06222 -0.0331705 1.23084 2650 
2546 1 -0.0346726 -0.0272945 -0.0591673 0.000423 -2.24066 -0.229052 1.31305 2650 
3647 1 -0.0357496 -0.0051757 -0.0585228 0.000423 -2.79549 -0.104079 1.70767 2650 
1655 1 -0.0363487 -0.0427697 -0.057879 0.000656 -1.22662 0.129882 0.77033 2650 
2679 1 -0.0362758 -0.0284336 -0.0581981 0.000423 -2.76835 -0.0979813 1.72555 2650 
367 1 -0.0366217 -0.0229392 -0.0579811 0.000423 -1.84932 -0.405192 1.16806 2650 
3024 1 -0.0365618 -0.0118784 -0.0583803 0.000116 -1.21894 0.72716 0.763383 2650 
3444 1 -0.0370702 -0.000809141 -0.0576954 0.000423 -2.4067 -0.080723 1.54635 2650 
91 1 -0.0387402 -0.0322476 -0.056958 0.000116 -2.92197 -0.238816 1.98739 2650 
4017 1 -0.0388435 -0.00935717 -0.0568877 0.000116 0.12312 -0.317471 -0.0840678 2650 
2060 1 -0.0378656 -0.000513314 -0.0575432 0.000116 -2.29911 0.134656 1.5129 2650 
2066 1 -0.0408546 -0.0121495 -0.055461 0.000116 -2.04241 -0.155189 1.50451 2650 
1020 1 -0.0404554 -0.0111842 -0.0553743 0.000423 -1.55365 0.482795 1.13507 2650 
1598 1 -0.0420264 -0.00640617 -0.0545784 0.000116 -0.954713 -0.123362 0.735147 2650 
1210 1 -0.0439975 -0.0117566 -0.0530983 4.2e-05 -2.46323 -0.189861 2.04105 2650 
14 1 -0.0442795 -0.0297714 -0.0523668 0.000423 -1.8566 0.0451412 1.56987 2650 
2103 1 -0.0439452 -0.0221904 -0.0526476 0.000423 -1.90634 -0.102205 1.59123 2650 
1356 1 -0.0446855 -0.0232087 -0.0520207 0.000423 -1.91622 -0.493067 1.64602 2650 
1760 1 -0.0452848 -0.0033369 -0.0520047 4.2e-05 1.90305 -0.383108 -1.65714 2650 
3066 1 -0.047278 -0.0138308 -0.0501996 4.2e-05 -2.16097 0.374861 2.03521 2650 
432 1 -0.0482159 -0.0254123 -0.0492851 4.2e-05 3.72834 -0.522669 -3.85687 2650 
4025 1 -0.0478854 -0.0151968 -0.0495178 0.000116 -2.25992 0.148094 2.18542 2650 
3196 1 -0.0476901 -0.01054 -0.0492809 0.000423 -2.27902 -0.33804 2.20545 2650 
319 1 -0.0484686 -0.0216347 -0.047662 0.000116 0.130494 -0.319882 -2.10407 2650 
2560 1 -0.0501629 -0.0357195 -0.0467615 0.000423 -1.82445 0.236972 1.95716 2650 
1202 1 -0.0502864 -0.0217715 -0.0471857 4.2e-05 -1.23859 -0.0110063 1.31998 2650 
2465 1 -0.0504644 -0.0406329 -0.0464359 0.000423 -0.982215 0.30911 1.06743 2650 
844 1 -0.0518601 -0.0412522 -0.0453506 0.000116 -0.872723 0.950945 0.74339 2650 
4106 1 -0.051232 -0.00401228 -0.0455877 0.000423 -1.9594 0.449631 2.202 2650 
1591 1 -0.0522333 -0.0431777 -0.0444368 0.000423 -1.13498 0.318922 1.33411 2650 
355 1 -0.0523826 -0.0233046 -0.0442607 0.000423 -1.78721 0.204602 2.11517 2650 
420 1 -0.0533517 -0.0151889 -0.0435731 0.000116 -2.01949 -0.222708 2.4727 2650 
4021 1 -0.053381 -0.00134221 -0.0435373 0.000116 -0.263042 -0.0763619 0.322516 2650 
2337 1 -0.0525824 -0.00142324 -0.0440233 0.000423 -2.08161 0.133313 2.48632 2650 
4250 1 -0.0532785 -0.041272 -0.0423497 0.000116 3.49181 -0.800909 -1.17008 2650 
400 1 -0.0552818 -0.00985606 -0.0410968 0.000116 -1.91748 -0.172991 2.57931 2650 
2052 1 -0.0553365 -0.010494 -0.041023 0.000116 -1.91055 -0.202187 2.57717 2650 
3227 1 -0.0555779 -0.0365807 -0.0401752 0.000423 -1.70575 -0.295477 2.35971 2650 
821 1 -0.0558273 -0.02994 -0.039828 0.000423 -1.6672 0.341708 2.33694 2650 
3502 1 -0.0562799 -0.00613069 -0.039847 4.2e-05 -1.84945 -0.141771 2.61216 2650 
3040 1 -0.0561426 -0.00493344 -0.0399127 0.000116 -1.08148 -0.196008 1.52125 2650 
51 1 -0.056422 -0.041055 -0.0388459 0.000423 0.485595 0.405005 -1.76485 2650 
3522 1 -0.0565245 -0.0319393 -0.0388321 0.000423 -0.938029 -0.363358 1.36541 2650 
3204 1 -0.0563748 -0.0255162 -0.0390491 0.000423 -1.50215 0.091744 2.16864 2650 
2875 1 -0.0563621 -0.0119438 -0.0390674 0.000423 -1.82101 -0.324029 2.62715 2650 
208 1 -0.057216 -0.0391657 -0.0383582 0.000116 -0.439787 1.37651 0.655996 2650 
3875 1 -0.0570568 -0.0280381 -0.0380456 0.000423 -1.39097 0.293495 2.08602 2650 
3328 1 -0.0573442 -0.0230823 -0.0376111 0.000423 -1.52998 0.196118 2.33271 2650 
2151 1 -0.057682 -0.00822777 -0.0376538 0.000116 -1.71204 -0.114579 2.62267 2650 
15 1 -0.00500539 -0.0049904 -0.037815 0.000423 -0.736648 -0.179924 -5.69462 2650 
3422 1 -0.0580223 -0.0274008 -0.0365563 0.000423 -1.09265 -0.120655 1.73426 2650 
152 1 -0.0580049 -0.0195414 -0.0365838 0.000423 -1.30852 0.0488956 2.07471 2650 
2051 1 -0.0581489 -0.00929256 -0.0369287 0.000116 -0.494098 0.978644 0.778019 2650 
3256 1 -0.00632889 -0.00619161 -0.0349563 0.000116 -0.95969 -0.275456 -5.24863 2650 
1002 1 -0.0598694 -0.036761 -0.0329677 0.000656 -1.44942 -0.114545 2.63215 2650 
2162 1 -0.0616141 -0.00835973 -0.0308015 0.000116 0.727456 -3.24312 -1.45518 2650 
1886 1 -0.0589844 -0.00695213 -0.0313849 0.000423 -3.37388 -0.204861 1.56055 2650 
2862 1 -0.0616847 -0.0254504 -0.0294314 0.000656 -1.22057 0.238067 2.55818 2650 
633 1 -0.0627722 -0.0160505 -0.0283668 0.000116 -1.33052 -0.141586 2.94428 2650 
4320 1 -0.0631275 -0.0325599 -0.0267932 0.000423 -0.918905 0.118339 2.16503 2650 
427 1 -0.0634943 -0.000272973 -0.0267112 0.000116 -0.0684324 -0.450054 0.162668 2650 
3349 1 -0.0641917 -0.00528943 -0.0249889 0.000116 -1.15917 -0.117738 2.97767 2650 
3391 1 -0.0647013 -0.0184424 -0.0238527 4.2e-05 -1.10687 0.073736 3.00243 2650 
3385 1 -0.064885 -0.0131164 -0.023129 0.000116 0.526471 -0.501026 -1.47693 2650 
2835 1 -0.0650521 -0.0257784 -0.0226548 0.000116 -0.567012 -0.182801 1.62815 2650 
1343 1 -0.0649135 -0.0168016 -0.0221177 0.000423 -0.948423 -0.186775 2.78353 2650 
1364 1 -0.000722466 -0.00499349 -0.0224323 0.000423 -0.140299 -0.298186 -2.36883 2650 
3964 1 -0.065039 -0.0276845 -0.0217457 0.000423 -0.793668 0.0968054 2.37377 2650 
3248 1 -0.0653243 -0.011198 -0.0218577 0.000116 -1.01852 -0.21132 3.04397 2650 
3974 1 -0.0651904 -0.042672 -0.0212875 0.000423 -0.0657291 0.265234 0.201269 2650 
2201 1 -0.0652799 -0.0429451 -0.0202417 0.000656 -0.0400034 0.468075 0.128954 2650 
2247 1 -0.0655106 -0.0258973 -0.0202809 0.000423 -0.720312 0.116987 2.32673 2650 
1363 1 -0.0657578 -0.0207627 -0.0192266 0.000423 -0.476882 -0.0585355 0.878239 2650 
1957 1 -0.0662244 -0.0169712 -0.0189567 0.000116 -0.913329 0.141396 3.19068 2650 
1185 1 -0.0663267 -0.0250608 -0.0185954 0.000116 -0.51133 -0.0398671 1.82383 2650 
1169 1 -0.0163665 -0.00364493 -0.0183353 0.000116 -2.27289 -0.0659687 -2.5463 2650 
55 1 -0.0662784 -0.0224959 -0.0176105 0.000423 -0.588468 0.227038 2.21475 2650 
482 1 -0.0662278 -0.0214392 -0.0177996 0.000423 -0.430259 -0.0685087 1.60089 2650 
2386 1 -0.0668323 -0.0218291 -0.0166264 0.000116 0.501069 -0.292409 -1.91578 2650 
606 1 -0.000183 0.00318868 -0.016592 0.000116 0 -0.011753 0 2650 
3589 1 -0.0014507 0.00540683 -0.0166796 0.000116 0.154771 0.0635836 -0.00686375 2650 
188 1 -0.000656756 0.00938932 -0.0167979 0.000116 -0.0156058 0.0716121 0.00169132 2650 
2713 1 -0.000763 0.0101597 -0.016767 0.000116 0 -0.011753 0 2650 
1781 1 -0.0666017 -0.0355686 -0.0163452 0.000423 -0.265894 0.5017 1.08344 2650 
615 1 -0.0668989 -0.0153059 -0.0164183 0.000116 -0.785248 0.290611 3.19961 2650 
736 1 -0.003429 0.00111368 -0.016474 0.000116 0 -0.011753 0 2650 
150 1 -0.00295226 0.00118393 -0.0161744 0.000423 -0.064478 0.0439522 0.00804511 2650 
2793 1 -0.00200093 0.000978955 -0.0162591 0.000423 -0.000947019 0.106571 0.0232058 2650 
1679 1 -0.00363731 0.00262637 -0.0160123 0.000423 -0.000267589 -0.00703629 -0.00433961 2650 
2013 1 -0.00273344 0.00282749 -0.0161334 0.000423 -6.21088e-05 -0.00297451 0.00266081 2650 
3043 1 -0.00212627 0.00242866 -0.0160618 0.000116 0.127084 0.0078871 0.090283 2650 
2301 1 -0.004222 0.00496168 -0.016305 4.2e-05 0 -0.011753 0 2650 
3121 1 -0.00327789 0.00506546 -0.016198 0.000423 0.0295457 0.00139416 -0.0105356 2650 
1388 1 -0.000845292 0.00520502 -0.0159945 0.000116 -0.039288 0.0021603 0.0169103 2650 
302 1 -0.000354141 0.00643897 -0.0162903 0.000116 0.0171051 0.0203877 0.0103663 2650 
3934 1 -0.001977 0.00795068 -0.016218 0.000116 0 -0.011753 0 2650 
1617 1 -0.00361497 0.00972506 -0.0163063 0.000116 0.0304875 0.00968505 -0.0492471 2650 
3573 1 -0.00448512 0.0316095 -0.0159248 0.000116 0.196545 -0.226716 -0.153339 2650 
456 1 -0.00077959 0.0390531 -0.0164471 0.000423 -0.728947 -0.0502374 -0.0305651 2650 
4245 1 -0.00216826 0.0407407 -0.0163743 0.000116 -0.131082 0.152483 0.00432583 2650 
1357 1 -0.00290499 0.0497828 -0.0161744 0.000423 0.0681058 0.285169 -0.0155587 2650 
843 1 -0.0671793 -0.0433457 -0.0152306 0.000116 -0.204562 -0.0781992 0.902286 2650 
623 1 -0.00682213 0.000519567 -0.01526 0.000116 0.0135085 -0.00577665 0.0160157 2650 
1991 1 -0.00516398 0.000529048 -0.0152595 0.000656 -0.0197706 -0.00214867 0.00868857 2650 
3637 1 -0.00376147 0.00219287 -0.0151594 0.000423 -0.00927208 0.0142333 -0.0137243 2650 
3239 1 -0.0032544 0.00175782 -0.0157374 0.000116 -0.0332144 0.00168872 0.00188105 2650 
676 1 -0.00256485 0.00189689 -0.0157772 0.000423 -0.0153526 -0.000110762 0.0217663 2650 
2399 1 -0.002418 0.00340268 -0.015541 0.000116 0 -0.011753 0 2650 
2283 1 -0.00208079 0.00388373 -0.0155174 0.000116 -0.0318858 -0.01081 -0.0228231 2650 
2313 1 -0.00488477 0.00560198 -0.0151801 0.000656 0.00856952 0.0288131 0.00982472 2650 
2438 1 -0.00566887 0.00667873 -0.0153958 0.000423 0.0095107 -0.00232096 0.00866566 2650 
978 1 -0.00499478 0.00684366 -0.0156603 0.000116 0.015313 -0.00383775 -0.0151954 2650 
1219 1 -0.000688785 0.00700623 -0.0157633 0.000656 0.0133734 0.0239605 0.00857101 2650 
963 1 -0.00560807 0.00753982 -0.0150178 0.000116 -0.029376 -0.065298 -0.0412241 2650 
1620 1 -0.00326516 0.00792523 -0.0156554 0.000116 0.0529387 0.0514306 -0.00503745 2650 
2969 1 -0.00140106 0.00809484 -0.0150917 0.000656 -0.00819712 0.0280435 0.000260256 2650 
1483 1 -0.000315748 0.00845025 -0.0152915 0.000423 -0.0010087 0.0213686 -0.00667363 2650 
86 1 -0.002064 0.00920668 -0.015055 0.000116 0 -0.011753 0 2650 
3177 1 -0.001068 0.00900668 -0.015412 4.2e-05 0 -0.011753 0 2650 
1228 1 -0.0014308 0.0092718 -0.0150111 0.000423 -0.00123313 -0.0118667 -0.000623591 2650 
3830 1 -0.006879 0.00950268 -0.015411 4.2e-05 0 -0.011753 0 2650 
371 1 -0.000460226 0.00999988 -0.0152518 0.000423 0.000724313 -0.00601752 -0.0061741 2650 
938 1 -0.000869 0.0104127 -0.015416 0.000116 0 -0.011753 0 2650 
568 1 -0.00286074 0.016611 -0.0153562 0.000423 0.0646767 0.0324089 0.0265592 2650 
142 1 -0.0041166 0.02324 -0.0154502 0.000423 -0.0600809 0.0373384 0.0570253 2650 
913 1 -0.000983795 0.0241957 -0.0151942 0.000423 -0.0131935 0.0940792 0.0439723 2650 
1813 1 -0.067076 -0.0390175 -0.0142743 0.000423 -0.331545 0.0537651 1.55796 2650 
1818 1 -0.0673621 -0.0151463 -0.0144004 0.000116 -0.669629 0.174334 3.13239 2650 
2827 1 -0.00501876 -0.00111778 -0.0142588 0.000116 -0.0201753 -0.0226203 0.0017234 2650 
2817 1 -0.00184083 -0.00117285 -0.0144368 0.000116 0.0100645 -0.056664 0.00630574 2650 
1053 1 -0.007469 -0.00043932 -0.014946 0.000116 0 -0.011753 0 2650 
2332 1 -0.0042698 0.000166512 -0.0142889 0.000423 -0.0114447 -0.00779769 0.00753018 2650 
222 1 -0.00213369 0.000151516 -0.014895 0.000656 -0.0189906 -0.0240038 0.0410277 2650 
2922 1 -0.00654373 0.00157199 -0.0148119 0.000116 -0.0108987 -0.0113206 0.0393947 2650 
220 1 -0.00363756 0.0025723 -0.014858 4.2e-05 0.00197382 0.00663681 0.00671825 2650 
3365 1 -0.002315 0.00582868 -0.014552 0.000116 0 -0.011753 0 2650 
3950 1 -0.00713974 0.0064812 -0.0146088 0.000656 0.000269197 -0.0034931 0.0278554 2650 
1618 1 -0.00832419 0.0074481 -0.0144275 0.000116 -0.0222988 0.059375 0.0201275 2650 
4190 1 -0.00830534 0.00856566 -0.0142171 0.000423 -0.009489 7.8582e-05 0.00632979 2650 
581 1 -0.00560234 0.00870677 -0.0143261 0.000423 -0.000593495 -0.0101803 -0.00423903 2650 
233 1 -0.00477984 0.00983362 -0.0144781 0.000423 0.000342891 -0.00976437 -0.0328705 2650 
3669 1 -0.000266501 0.0106852 -0.014643 0.000423 0.00220454 -0.00743356 -0.00383523 2650 
3644 1 -0.000913656 0.0123746 -0.0147526 0.000423 -0.00432743 0.00711996 -0.0325914 2650 
2578 1 -0.0672437 -0.0258486 -0.0134623 0.000423 -0.498589 0.0829375 2.49043 2650 
378 1 -0.0671592 -0.00926407 -0.013878 0.000423 -0.549342 -0.0365703 2.6584 2650 
1468 1 -0.00446757 -0.00224331 -0.0136041 0.000423 -0.0197001 -0.0470204 -0.0326717 2650 
1022 1 -0.0027072 -0.00227735 -0.0134255 0.000423 -0.0361806 0.0454744 -0.169588 2650 
545 1 -0.0023301 -0.00188471 -0.0140729 4.2e-05 -0.000252069 0.0758595 -0.196498 2650 
509 1 -0.00734469 -0.000401157 -0.0140764 0.000116 -0.00521486 0.00944493 -0.0325939 2650 
3733 1 -0.00642442 0.00106994 -0.0137945 0.000656 -0.0232119 0.0173762 0.0152854 2650 
1032 1 -0.00778861 0.00393617 -0.0136322 0.000423 -0.0173367 -0.00904293 -0.0556269 2650 
234 1 -0.00115164 0.00384176 -0.0136875 0.000423 0.0351287 -0.0167305 0.0264562 2650 
2512 1 -0.00958757 0.00440718 -0.0136778 0.000116 0.018779 -0.0192413 0.00230208 2650 
1171 1 -0.00864397 0.00425361 -0.0141883 0.000116 -0.0146011 -0.0168948 -0.0399555 2650 
3587 1 -0.00600596 0.00397181 -0.014083 0.000116 -0.0152422 -0.0151231 -0.00566973 2650 
4165 1 -0.00517195 0.00418181 -0.0137671 0.000656 -6.3943e-05 -0.032131 0.00827285 2650 
2918 1 -0.0078229 0.00486804 -0.0136752 0.000116 -0.0132236 0.0205789 -0.0380223 2650 
4296 1 -0.00355148 0.0065319 -0.0134232 0.000423 -0.0431702 0.0421068 0.0473826 2650 
4227 1 -0.000322261 0.00703255 -0.0139441 0.000116 -0.00921828 -0.0161692 0.0154311 2650 
2322 1 -0.00827449 0.00726735 -0.0136107 0.000656 -0.0108707 -0.010103 0.00337555 2650 
3515 1 -0.00713062 0.00781225 -0.0141376 0.000656 -0.0103794 -0.0121819 0.00307219 2650 
1288 1 -0.002467 0.00713168 -0.014044 0.000116 0 -0.011753 0 2650 
508 1 -0.00936706 0.008265 -0.0136711 0.000116 -0.0609474 0.0130298 0.0475554 2650 
2222 1 -0.000421407 0.00803976 -0.014165 0.000423 -0.00549102 -0.00568171 -0.00117535 2650 
1827 1 -0.00645612 0.00942326 -0.0140812 0.000116 -0.0386186 0.00754243 -0.0442276 2650 
4257 1 -0.00826668 0.0101342 -0.0140853 0.000116 0.0101268 -0.0416798 0.0036163 2650 
1476 1 -0.006941 0.00993168 -0.013435 0.000423 0 -0.011753 0 2650 
1986 1 -0.00295098 0.00976374 -0.013836 0.000656 0.00762539 0.0149956 0.0116892 2650 
1409 1 -0.00044 0.0109117 -0.013868 0.000116 0 -0.011753 0 2650 
3007 1 -0.00125953 0.0114212 -0.0138456 0.000423 -0.0135196 -0.00505473 -0.0280609 2650 
3632 1 -0.00963141 0.0127944 -0.0134367 0.000423 -0.0216519 0.000467483 0.0139725 2650 
478 1 -0.00738921 0.0149399 -0.0140837 0.000423 -0.0255767 0.012458 -0.051203 2650 
3216 1 -0.00459346 0.0257544 -0.0137839 0.000423 -0.00544148 0.107266 0.0543995 2650 
2467 1 -0.00125513 0.0305256 -0.01359 0.000423 0.0301791 0.103437 0.0421276 2650 
3831 1 -0.0676701 -0.0329303 -0.0132652 4.2e-05 -0.124848 -1.33637 0.636891 2650 
838 1 -0.0676249 -0.0121975 -0.0131111 0.000116 -0.611684 -0.206187 3.15497 2650 
3330 1 -0.0673624 -0.00623636 -0.0128552 0.000423 -0.514024 0.39164 2.69354 2650 
3153 1 -0.00177587 -0.00264977 -0.0130962 0.000116 0.0575311 -0.0297429 -0.0490481 2650 
2172 1 -0.00811504 -0.00164701 -0.0128363 0.000116 0.0554355 0.00150652 -0.0523356 2650 
3551 1 -0.00643476 0.00024661 -0.0130647 0.000423 -0.015336 0.00523015 0.00637389 2650 
541 1 -0.0063445 0.000731959 -0.0126734 4.2e-05 -0.0143735 0.00954058 0.00936495 2650 
4126 1 -0.00470643 0.000112294 -0.0132735 0.000116 -0.0261531 0.0084042 0.00402279 2650 
2525 1 -0.004063 0.00135868 -0.013231 4.2e-05 0 -0.011753 0 2650 
2619 1 -0.005851 0.00217468 -0.012854 0.000116 0 -0.011753 0 2650 
3880 1 -0.010277 0.00309068 -0.012913 0.000423 0 -0.011753 0 2650 
2609 1 -0.00886 0.00289868 -0.013248 0.000116 0 -0.011753 0 2650 
3917 1 -0.003984 0.00365968 -0.012703 0.000116 0 -0.011753 0 2650 
2059 1 -0.003583 0.00386868 -0.012756 0.000116 0 -0.011753 0 2650 
2912 1 -0.00563081 0.00473293 -0.0132469 0.000116 0.00196064 0.0151142 0.00117299 2650 
3322 1 -0.00351893 0.00454976 -0.0129237 0.000423 0.0155165 0.0110838 0.0251988 2650 
2596 1 -0.00944834 0.00509612 -0.0128425 0.000116 -0.0442582 -0.0431064 0.0384975 2650 
450 1 -0.00641556 0.00545918 -0.0132167 0.000656 0.0112424 0.0469319 0.00733295 2650 
4078 1 -0.00910488 0.00625504 -0.0127085 0.000423 -0.0196946 -0.00953845 0.00130892 2650 
104 1 -0.00297465 0.00586999 -0.0131818 4.2e-05 -0.00674979 0.0150481 0.0116551 2650 
1427 1 -0.002948 0.00619968 -0.013376 4.2e-05 0 -0.011753 0 2650 
3446 1 -0.0024932 0.00577955 -0.0126486 0.000423 0.014297 -0.016402 -0.00312272 2650 
2913 1 -0.00765935 0.0067965 -0.0132373 0.000116 -0.028239 -0.0119827 -0.0130286 2650 
1237 1 -0.0100677 0.00780819 -0.0131148 0.000423 0.0147702 0.0203613 -0.00922036 2650 
3259 1 -0.00873519 0.00755827 -0.0130124 0.000116 -0.0089878 -0.00810535 0.00538998 2650 
1584 1 -0.0014822 0.00751577 -0.012991 0.000423 -0.00963006 0.0395817 0.04039 2650 
1795 1 -0.00873574 0.00819617 -0.0129817 0.000423 0.00165908 -0.0118589 -0.000959055 2650 
1769 1 -0.00643375 0.00863704 -0.0133199 0.000656 -0.0139492 0.00030421 -0.000268195 2650 
2483 1 -0.00906082 0.00932853 -0.0130444 0.000116 0.00258646 -0.0218162 0.0129531 2650 
1250 1 -0.00788491 0.00872698 -0.0130821 0.000423 -0.0109693 -0.0170514 -0.0143142 2650 
205 1 -0.000744 0.00891568 -0.01334 0.000116 0 -0.011753 0 2650 
289 1 -0.00150274 0.00974958 -0.0129565 0.000116 -0.0188061 -0.000940224 -0.0594549 2650 
1775 1 -0.00822828 0.0116706 -0.0130449 0.000423 -7.29146e-05 -0.011186 -0.000346901 2650 
949 1 -0.00656486 0.0110769 -0.0127725 0.000116 -0.0176518 0.0277962 -0.00593252 2650 
959 1 -0.00781239 0.0129313 -0.013179 0.000116 -0.0723779 0.0623805 -0.0339909 2650 
981 1 -0.0602772 -0.0431798 -0.0122876 4.2e-05 4.82812 -1.1436 -1.60786 2650 
330 1 -0.00794653 -0.00307756 -0.0124348 4.2e-05 -0.0696064 -0.0147686 0.0345761 2650 
4097 1 -0.00883712 -0.00223047 -0.0124344 0.000423 -0.0116536 0.00229875 0.0371095 2650 
800 1 -0.0066877 -0.0020149 -0.0119231 0.000423 -0.00429202 -0.0325333 0.0439645 2650 
2468 1 -0.00353089 -0.00200597 -0.0121296 0.000423 -0.0504222 0.0211365 0.000191011 2650 
1763 1 -0.001143 -0.00195532 -0.012442 0.000656 0 -0.011753 0 2650 
3191 1 -0.00722245 -0.000292125 -0.0125466 0.000656 -0.0197381 0.00193499 -0.0014393 2650 
1422 1 -0.003881 -0.00010932 -0.012349 4.2e-05 0 -0.011753 0 2650 
1799 1 -0.00323033 0.000698379 -0.0120567 0.000423 7.10678e-05 -0.0118308 4.63239e-05 2650 
3201 1 -0.00630407 0.00145549 -0.0123147 0.000423 -0.00608722 0.0216696 0.0089772 2650 
3389 1 -0.010415 0.00215668 -0.012026 0.000116 0 -0.011753 0 2650 
3956 1 -0.00904168 0.00158383 -0.0123098 0.000656 -0.000640959 -0.0104529 -0.000368355 2650 
388 1 -0.00716793 0.00182637 -0.0118666 0.000116 0.0212466 0.0335067 0.0250458 2650 
3645 1 -0.00589444 0.00330799 -0.0125192 0.000423 -0.0357151 -0.0039173 0.0164321 2650 
1192 1 -0.00514871 0.00365183 -0.0119963 0.000116 -0.0160738 0.0171838 -0.0228619 2650 
411 1 -0.0104912 0.00451701 -0.0120907 0.000116 -0.00787832 -0.00657823 -8.20909e-05 2650 
3826 1 -0.009208 0.00405168 -0.012552 0.000116 0 -0.011753 0 2650 
708 1 -0.00280295 0.0044816 -0.0123227 0.000423 -0.00318183 -0.00599768 -0.010405 2650 
3380 1 -0.00223732 0.00436607 -0.0121246 0.000116 -0.00133046 -0.0120531 0.0302183 2650 
2194 1 -0.00226677 0.00466034 -0.0124622 4.2e-05 0.00491046 0.00111596 0.00228026 2650 
2957 1 -0.00157417 0.00447913 -0.0122618 4.2e-05 0.0205169 0.0248349 -0.000218849 2650 
3316 1 -0.008979 0.00480468 -0.012376 0.000423 0 -0.011753 0 2650 
1261 1 -0.00744968 0.00493526 -0.0124418 0.000423 -0.000148786 -0.00207045 -0.0014312 2650 
3362 1 -0.00266167 0.0050892 -0.0123181 0.000116 0.000350619 -0.00253681 -0.00404217 2650 
3030 1 -0.001189 0.00631468 -0.012596 0.000116 0 -0.011753 0 2650 
2219 1 -0.00306046 0.00656505 -0.0123256 0.000423 0.0430827 0.0512131 0.0198144 2650 
445 1 -0.00963833 0.00730569 -0.0122451 0.000656 -0.00157651 -0.00352117 -0.00927671 2650 
4318 1 -0.00860836 0.00763035 -0.012311 0.000423 0.000634828 -0.00541564 0.00164809 2650 
1495 1 -0.004483 0.00778268 -0.012591 0.000116 0 -0.011753 0 2650 
2344 1 -0.000944791 0.00733639 -0.0121554 0.000423 0.00597873 -0.023338 -0.0226217 2650 
2453 1 -0.00627441 0.00864912 -0.012245 0.000423 0.00439844 0.0194243 -0.044432 2650 
3173 1 -0.004958 0.00844368 -0.012321 4.2e-05 0 -0.011753 0 2650 
3684 1 -0.00428367 0.00792758 -0.0125181 0.000116 0.00413104 -0.0230128 -0.00941473 2650 
1519 1 -0.00315796 0.0081669 -0.0121056 0.000116 -0.0494896 0.0341374 0.0501115 2650 
2630 1 -0.001036 0.00865168 -0.012074 4.2e-05 0 -0.011753 0 2650 
4002 1 -0.000443 0.00847568 -0.01223 0.000116 0 -0.011753 0 2650 
3847 1 -0.00963472 0.00872011 -0.0124835 0.000656 0.00191913 0.0130802 -0.00623859 2650 
4179 1 -0.0071949 0.0087338 -0.0122206 0.000423 -0.00767678 -0.0221048 -0.00852388 2650 
1423 1 -0.00145 0.0101317 -0.012526 4.2e-05 0 -0.011753 0 2650 
3106 1 -0.00766118 0.0120413 -0.0123816 0.000423 -0.042507 0.0242048 -0.0146805 2650 
1802 1 -0.00409787 0.0124557 -0.012144 0.000423 0.00500259 -0.000364755 -0.0111755 2650 