ITEM: TIMESTEP
4729524
ITEM: NUMBER OF ATOMS
4363
ITEM: BOX BOUNDS ff ff ff
-0.15 0.15
-0.15 0.06
-0.15 0.15
ITEM: ATOMS id type x y z radius vx vy vz density 
2855 1 -0.000905172 -0.0514686 -0.0689521 4.2e-05 -0.412053 0.370769 0.00540925 2650 
1499 1 -0.00413947 -0.0624455 -0.0678197 0.000116 -1.93994 0.353015 -0.0405603 2650 
3425 1 -0.0230345 -0.0480471 -0.0645939 0.000423 -2.76671 -1.13438 0.986623 2650 
1996 1 -0.0264868 -0.049833 -0.0632566 0.000423 -2.42453 0.0528601 1.0152 2650 
632 1 -0.0279531 -0.0558776 -0.0629575 0.000116 0.415887 0.799033 -0.184654 2650 
2705 1 -0.0173617 -0.0620462 -0.0618428 0.000116 7.40557 0.139032 -0.778141 2650 
3708 1 -0.0300397 -0.0542787 -0.061989 0.000116 0.255475 -1.28087 -0.123802 2650 
169 1 -0.029279 -0.046709 -0.0623519 0.000116 0.922249 -0.871085 -0.433066 2650 
4316 1 -0.0316891 -0.0535081 -0.0608174 0.000423 -2.61488 -0.80222 1.36249 2650 
669 1 -0.0406031 -0.0527909 -0.0549781 0.000656 -2.43276 0.406587 1.79667 2650 
1781 1 -0.0465377 -0.0486973 -0.0503705 0.000423 -1.45661 -0.00172191 1.34577 2650 
2237 1 -0.0503996 -0.0551208 -0.0465062 0.000423 -1.78803 0.471225 1.93772 2650 
1051 1 -0.0524548 -0.054774 -0.0446488 0.000116 -1.10801 -0.473609 1.30172 2650 
19 1 -0.0539534 -0.0538415 -0.0423319 0.000423 -1.85691 -0.675502 2.36669 2650 
2256 1 -0.0545642 -0.0480601 -0.0420448 0.000116 0.0282595 0.855987 -0.0366742 2650 
4250 1 -0.0556882 -0.0570976 -0.0405447 0.000116 9.62393 1.27086 -13.2185 2650 
734 1 -0.0628058 -0.0626038 -0.0282923 0.000116 -0.560491 0.00387857 1.24423 2650 
2201 1 -0.0656221 -0.0621319 -0.0190196 0.000656 -0.494461 -0.0503986 1.58899 2650 
1961 1 -0.0661156 -0.0459609 -0.0193327 0.000116 0.676818 -2.77306 -2.31464 2650 
3331 1 -0.0660549 -0.0535768 -0.0184312 0.000423 -0.771148 -0.209152 2.76369 2650 
2557 1 -0.0673329 -0.0468056 -0.0130088 0.000423 -0.310345 -0.0165946 1.60632 2650 
758 1 -0.0672644 -0.0601988 -0.0116794 0.000116 1.89778 0.429782 -8.99813 2650 
1535 1 -0.0681462 -0.0508019 -0.0105502 4.2e-05 0.964161 0.571487 -6.22774 2650 
534 1 -0.0681424 -0.0621244 -0.010082 0.000116 2.07416 -0.0590917 -14.0178 2650 
3724 1 -0.0575704 -0.0521477 -0.0064154 4.2e-05 -0.716868 -3.72566 -13.0405 2650 
1380 1 -0.0688116 -0.0494682 -0.00315995 0.000116 0.371773 0.388339 -8.09587 2650 
4150 1 -0.0688206 -0.0453358 -0.00295804 0.000116 0.0838816 -0.838833 -1.95156 2650 
2083 1 -0.0689552 -0.0584836 0.000619519 4.2e-05 0.0065997 0.675948 0.734576 2650 
3692 1 -0.0686786 -0.0603192 0.00531675 0.000116 -0.0339399 0.953268 -0.438415 2650 
343 1 -0.0665122 -0.0499132 0.0167058 0.000423 0.712714 -0.647765 2.83759 2650 
689 1 -0.0650963 -0.0571913 0.0215736 0.000423 0.82709 -0.38753 2.49566 2650 
1239 1 -0.0639546 -0.0555514 0.0247539 0.000423 0.393063 0.510655 1.01552 2650 
3957 1 -0.0623967 -0.0587449 0.02789 0.000656 0.793972 0.19116 1.77631 2650 
483 1 -0.0585407 -0.046631 0.0357203 0.000423 0.859085 0.194495 1.40792 2650 
2833 1 -0.0579832 -0.0621868 0.0371883 0.000116 -0.963681 -1.06789 -1.50255 2650 
1463 1 -0.0576225 -0.0467258 0.0371832 0.000423 1.3202 -0.354922 2.04589 2650 
3840 1 -0.0550544 -0.0555171 0.0404996 0.000656 1.62038 -0.246226 2.20272 2650 
4019 1 -0.0517566 -0.0473584 0.0429876 0.000116 1.60623 -0.0797374 5.22345 2650 
3850 1 -0.046574 -0.0562228 0.050337 0.000423 0.204362 0.0781106 0.189085 2650 
3357 1 -0.0464094 -0.0555789 0.0509038 0.000116 2.83366 0.424654 2.58347 2650 
3440 1 -0.044217 -0.0491353 0.0524195 0.000423 2.00472 0.494889 1.69103 2650 
51 1 -0.0408435 -0.062333 0.0550895 0.000423 -9.40217 -0.0299296 -6.9708 2650 
1132 1 -0.039954 -0.0489186 0.0557371 0.000423 0.620953 0.450267 0.445118 2650 
893 1 -0.0386879 -0.0484716 0.0566233 0.000423 1.25456 -0.242831 0.857181 2650 
1520 1 -0.0382646 -0.052301 0.0572787 0.000116 -5.69746 0.256521 -3.80614 2650 
747 1 -0.0365613 -0.0591345 0.0583806 0.000116 1.59178 -0.471114 0.996865 2650 
2803 1 -0.0356863 -0.0599677 0.0589195 0.000116 -1.53861 -0.000898013 -0.931904 2650 
1270 1 -0.0357578 -0.049549 0.0588761 0.000116 1.88005 -0.706949 1.14183 2650 
649 1 -0.0307939 -0.0489261 0.0615329 0.000116 -4.97096 5.37746 -3.01184 2650 
2274 1 -0.0294887 -0.0500767 0.062253 0.000116 -1.62183 -0.773337 -0.768245 2650 
4037 1 -0.0288325 -0.0531995 0.0625597 0.000116 -11.4466 0.437423 -5.27549 2650 
4288 1 -0.0104352 -0.062377 0.0638737 0.000423 -10.0169 -1.72562e-06 -2.35449 2650 
4020 1 -0.0229777 -0.0566323 0.0649388 0.000116 2.09398 0.257612 0.740925 2650 
4133 1 -0.00974417 -0.0495413 0.0681914 0.000116 -0.0286477 0.176069 -0.0040936 2650 
2612 1 -0.000222476 -0.0560518 0.0688838 0.000116 -5.8744 0.295048 -0.0189727 2650 
844 1 -0.00354488 -0.0321972 -0.0687929 0.000116 -2.18211 -0.382225 0.112444 2650 
3040 1 -0.00463181 -0.0210332 -0.0687282 0.000116 -3.08929 0.414699 0.208197 2650 
1598 1 -0.00515325 -0.00453977 -0.0686911 0.000116 -0.895512 2.14922 0.0671818 2650 
312 1 -0.00451672 -0.000431839 -0.0687359 0.000116 -2.66138 1.40511 0.174883 2650 
3691 1 -0.00959786 -0.0415032 -0.0682122 0.000116 -0.609288 0.657282 0.0857304 2650 
4320 1 -0.00103289 -0.0329694 -0.0685703 0.000423 -2.35918 -0.0947418 0.035537 2650 
2578 1 -0.00515536 -0.031434 -0.068384 0.000423 -2.76649 0.36906 0.208561 2650 
4360 1 -0.0068351 -0.029568 -0.0685442 0.000116 -3.74244 -0.41148 0.373189 2650 
2247 1 -0.00608743 -0.0289207 -0.0683074 0.000423 -2.43659 -0.095142 0.217145 2650 
3964 1 -0.00154592 -0.0278666 -0.0685606 0.000423 -2.50231 -0.0863497 0.0564224 2650 
2920 1 -0.0098843 -0.0265568 -0.0681713 0.000116 -3.08549 -0.0909437 0.447371 2650 
3330 1 -0.00447839 -0.0214564 -0.0684317 0.000423 -3.08961 0.410376 0.202194 2650 
3422 1 -0.000335618 -0.0217068 -0.0685772 0.000423 -2.04974 -0.210285 0.0100315 2650 
3516 1 -0.00142517 -0.010213 -0.0683314 0.000656 -2.84092 0.236578 0.0592521 2650 
378 1 -0.000331507 -0.0101095 -0.0685773 0.000423 -2.8006 0.0909232 0.0135383 2650 
2672 1 -0.00652217 -0.00880459 -0.0682672 0.000423 -3.18168 -0.208539 0.303973 2650 
1813 1 -0.0101673 -0.0308394 -0.0678202 0.000423 -2.76711 -0.436644 0.414834 2650 
4177 1 -0.0132719 -0.0304562 -0.0672816 0.000423 -2.66739 -0.414779 0.526169 2650 
3522 1 -0.0123965 -0.0218346 -0.0674483 0.000423 -1.56192 -0.280949 0.28707 2650 
2000 1 -0.0123834 -0.0204279 -0.0674515 0.000423 -1.75632 0.0119503 0.269462 2650 
2386 1 -0.0122671 -0.0148537 -0.0677831 0.000116 -3.15323 -0.192159 0.570657 2650 
1922 1 -0.0110449 -0.0123264 -0.0676828 0.000423 -3.16349 -0.205185 0.516239 2650 
1760 1 -0.0148737 -0.00160209 -0.0673348 4.2e-05 -4.66161 -0.381496 1.02971 2650 
55 1 -0.0162661 -0.0250591 -0.0666211 0.000423 -2.21283 -0.173522 0.54028 2650 
2087 1 -0.0179858 -0.0145042 -0.0665712 4.2e-05 -0.393929 -0.455785 0.106429 2650 
3089 1 -0.0170361 -0.00851225 -0.0664284 0.000423 -4.62507 -0.334238 1.18614 2650 
3482 1 -0.0160457 -0.00362671 -0.0669892 0.000116 -4.06914 -0.193546 0.974669 2650 
3974 1 -0.0182236 -0.0253533 -0.0661124 0.000423 -1.61004 -0.0963047 0.443799 2650 
3024 1 -0.02017 -0.0181279 -0.065865 0.000116 -3.06854 -0.178264 0.939687 2650 
1207 1 -0.0189166 -0.00391672 -0.0663127 4.2e-05 5.3892 -0.141218 -1.53734 2650 
3426 1 -0.0130666 -0.0214233 -0.0643023 0.000423 -3.0611 -1.04334 -0.108185 2650 
2421 1 -0.0255718 -0.0327924 -0.0633821 0.000656 -2.70956 -0.0722337 1.09318 2650 
2112 1 -0.026181 -0.0175678 -0.0633838 0.000423 -3.01514 -0.41221 1.24542 2650 
1945 1 -0.0264615 -0.00711415 -0.0635988 0.000116 -2.7993 -0.0616896 1.1647 2650 
1958 1 -0.0256458 -0.00523398 -0.0639321 0.000116 4.24358 2.55246 -1.70228 2650 
482 1 -0.0278197 -0.0318208 -0.0626818 0.000423 -1.72658 0.488403 0.766299 2650 
786 1 -0.0183385 -0.00720479 -0.0627891 0.000423 -3.06075 -0.209897 0.384112 2650 
3047 1 -0.0292929 -0.0197942 -0.0623454 0.000116 -2.91763 -0.119102 1.37084 2650 
1619 1 -0.0301067 -0.0131339 -0.0619565 0.000116 -1.45751 4.19743 0.708251 2650 
2060 1 -0.0316649 -0.019555 -0.0611748 0.000116 -2.77056 -0.0971575 1.43408 2650 
822 1 -0.0347044 -0.0283418 -0.0591486 0.000423 -2.23254 -0.125163 1.3099 2650 
3862 1 -0.0363756 -0.0334629 -0.0581358 0.000423 -2.50265 -0.331112 1.56591 2650 
4303 1 -0.0361745 -0.0251551 -0.0582611 0.000423 -1.66414 -0.117978 1.03327 2650 
3266 1 -0.038299 -0.03718 -0.0572557 0.000116 4.88411 2.00931 -3.26704 2650 
2873 1 -0.0382973 -0.0319895 -0.0568882 0.000423 -2.27978 -0.197743 1.53475 2650 
2634 1 -0.0385699 -0.00818621 -0.0571627 4.2e-05 -2.63949 -0.178748 1.78096 2650 
3904 1 -0.0383613 -0.00513197 -0.0572139 0.000116 -2.66606 -0.122577 1.78756 2650 
1712 1 -0.0398048 -0.0188327 -0.0562192 0.000116 -2.61628 -0.124217 1.8524 2650 
2700 1 -0.039216 -0.014845 -0.0566315 0.000116 -2.63544 -0.24983 1.82498 2650 
538 1 -0.0410038 -0.0102358 -0.0553509 0.000116 9.80706 1.58933 -7.26505 2650 
4116 1 -0.0352976 -0.00512646 -0.0555765 0.000116 -2.83368 -0.130366 1.14809 2650 
1630 1 -0.041878 -0.0107817 -0.0546924 0.000116 -2.54774 -0.306879 1.95081 2650 
4017 1 -0.0428716 -0.00164015 -0.053917 0.000116 0.116691 -0.142093 -0.0927859 2650 
3580 1 -0.043565 -0.0276392 -0.0533583 0.000116 -1.42024 0.997294 1.15957 2650 
3443 1 -0.0440849 -0.0233671 -0.0525307 0.000423 -1.94272 -0.215134 1.63037 2650 
4021 1 -0.0448543 -0.0151829 -0.0522792 0.000116 -0.472562 1.04151 0.405447 2650 
843 1 -0.0453576 -0.0390836 -0.0518432 0.000116 -2.64756 -0.862869 2.31635 2650 
4139 1 -0.037545 -0.0393455 -0.0516463 0.000116 6.42523 1.0466 -4.31665 2650 
2599 1 -0.04681 -0.0176046 -0.0505356 0.000116 -2.57411 -0.804202 2.38434 2650 
3549 1 -0.0460257 -0.0168794 -0.0508389 0.000423 -2.34871 -0.186827 2.12635 2650 
4319 1 -0.0466547 -0.0402708 -0.0502622 0.000423 -2.05754 -0.0807256 1.90986 2650 
2327 1 -0.046418 -0.0385334 -0.050481 0.000423 -2.31704 -0.283181 2.13055 2650 
991 1 -0.0472385 -0.0259436 -0.0493937 0.000656 -2.07602 -0.28674 1.98544 2650 
1955 1 -0.0479812 -0.0204338 -0.049425 0.000116 -0.863662 -0.173938 0.841518 2650 
2959 1 -0.0481515 -0.00854808 -0.0493623 4.2e-05 -2.30195 -0.185651 2.24549 2650 
955 1 -0.0457356 -0.00529154 -0.0495283 0.000116 -3.81231 -0.139945 0.206468 2650 
2690 1 -0.0484639 -0.0128036 -0.0485201 0.000423 -2.26562 -0.352823 2.26299 2650 
8 1 -0.0493529 -0.0347488 -0.047281 0.000656 -1.9597 0.12036 2.04557 2650 
3431 1 -0.0496538 -0.0297482 -0.0473017 0.000423 -1.90945 0.0610982 2.00441 2650 
710 1 -0.0504884 -0.00750599 -0.0464098 0.000423 -2.16371 -0.177159 2.35387 2650 
2965 1 -0.0506588 -0.00381356 -0.0466247 4.2e-05 3.6086 -3.64456 -4.47854 2650 
295 1 -0.0516363 -0.0125025 -0.0455929 0.000116 -2.11347 -0.238109 2.39361 2650 
3656 1 -0.0517734 -0.0209354 -0.0449719 0.000423 -1.78926 -0.312119 2.05987 2650 
1410 1 -0.052233 -0.0192242 -0.044908 0.000116 -1.83529 0.0901266 2.13465 2650 
3464 1 -0.0524317 -0.00975131 -0.0446759 0.000116 -2.0812 -0.213641 2.44249 2650 
3743 1 -0.0538508 -0.020541 -0.0424631 0.000423 -1.38923 -0.336583 2.50404 2650 
2051 1 -0.0545839 -0.0178451 -0.0420192 0.000116 -0.602305 -0.748627 0.782407 2650 
2091 1 -0.0544037 -0.0307558 -0.0413697 0.000656 -1.89459 -0.769022 2.4915 2650 
427 1 -0.0547266 -0.0173382 -0.0418333 0.000116 -0.545213 0.349804 0.713252 2650 
2970 1 -0.054809 -0.0170768 -0.0408311 0.000656 -1.31256 -0.286018 1.76189 2650 
204 1 -0.0553787 -0.0201916 -0.0396885 0.000116 2.35432 -0.0875497 -0.517574 2650 
4212 1 -0.0562693 -0.0149388 -0.039201 0.000423 -1.85841 -0.207915 2.66757 2650 
3679 1 -0.0540324 -0.00589283 -0.0392525 0.000116 -3.28326 -0.185844 1.27431 2650 
2532 1 -0.057107 -0.027105 -0.0375499 0.000656 -1.57365 -0.195041 2.39326 2650 
107 1 -0.0576402 -0.0195938 -0.0378525 4.2e-05 -1.76079 -0.090642 2.68126 2650 
3933 1 -0.0578412 -0.00507135 -0.0374088 0.000116 -1.73909 -0.111557 2.68897 2650 
992 1 -0.0576718 -0.0355832 -0.0366765 0.000656 -0.956543 0.289863 1.50411 2650 
2259 1 -0.0549892 -0.00606707 -0.0358187 0.000116 -1.96388 -0.157794 2.37749 2650 
2248 1 -0.0590784 -0.0220189 -0.0348238 0.000423 -1.27427 -0.228386 2.16178 2650 
3135 1 -0.0591428 -0.0110933 -0.0353151 0.000116 -1.63955 -0.213535 2.74578 2650 
2790 1 -0.0591569 -0.0426683 -0.0346903 0.000423 -1.25612 -0.43783 2.14205 2650 
1060 1 -0.0598651 -0.0374895 -0.0340763 0.000116 -0.571942 0.606801 1.00479 2650 
1249 1 -0.060588 -0.0308402 -0.0321256 0.000423 -1.45292 -0.297044 2.74017 2650 
574 1 -0.0607129 -0.029649 -0.0318888 0.000423 -1.12779 0.0561589 2.14719 2650 
1197 1 -0.0617305 -0.0442324 -0.0305674 0.000116 0.744264 -0.763973 -1.50303 2650 
2620 1 -0.0618087 -0.0167148 -0.0304089 0.000116 -1.41357 -0.139465 2.8732 2650 
555 1 -0.0616436 -0.0259328 -0.0295175 0.000656 -1.21866 0.115382 2.54501 2650 
2340 1 -0.0622147 -0.0279206 -0.0288493 0.000423 -0.95159 -0.0648352 2.05215 2650 
921 1 -0.0627769 -0.0328604 -0.0276046 0.000423 -1.13773 -0.464581 2.58737 2650 
3536 1 -0.0626129 -0.0292866 -0.0279747 0.000423 -1.09864 -0.256888 2.45898 2650 
4373 1 -0.0157422 -0.00390041 -0.0278844 4.2e-05 -2.33279 -0.0938183 -3.98266 2650 
2865 1 -0.063299 -0.0228484 -0.0257769 0.000656 -1.13338 -0.0184373 2.78317 2650 
2072 1 -0.0645105 -0.0232659 -0.024154 0.000116 -0.439906 -0.758238 1.1749 2650 
4220 1 -0.0644239 -0.0140995 -0.0243842 0.000116 -1.13983 -0.289618 3.01148 2650 
418 1 -0.0648802 -0.0391514 -0.0231426 0.000116 -0.498494 -1.27752 1.39752 2650 
2563 1 -0.0646137 -0.0133452 -0.0229788 0.000423 -1.08253 -0.212532 3.04393 2650 
3337 1 -0.0138145 -0.00524616 -0.0231298 0.000423 -2.15881 -0.15931 -3.61701 2650 
433 1 -0.0651645 -0.0163789 -0.0225564 4.2e-05 -1.0487 -0.152374 3.02966 2650 
1462 1 -0.0650389 -0.0429814 -0.0217462 0.000423 -0.582637 0.312812 1.74256 2650 
4084 1 -0.0651343 -0.0211545 -0.0214556 0.000423 -0.353257 -0.327062 2.45477 2650 
3360 1 -0.0653744 -0.00792768 -0.0217075 0.000116 -0.726209 -0.055904 2.18705 2650 
4297 1 -0.0654 -0.0325708 -0.0206347 0.000423 -0.817015 -0.0791882 2.58947 2650 
3519 1 -0.065008 -0.0313996 -0.0210991 0.000656 -0.865593 -0.0394535 2.66696 2650 
4325 1 -0.0656657 -0.0321887 -0.0197729 0.000423 -0.785237 -0.158864 2.60776 2650 
939 1 -0.065901 -0.00695719 -0.020052 0.000116 -0.932877 -0.156693 3.0659 2650 
4213 1 -0.0661446 -0.0443058 -0.0181065 0.000423 -0.500376 0.0658532 1.82792 2650 
353 1 -0.0664918 -0.0316676 -0.0167868 0.000423 -0.642229 -0.21935 2.54385 2650 
606 1 -0.000183 0.00358334 -0.016592 0.000116 0 -0.011753 0 2650 
302 1 -0.000921678 0.00573582 -0.0166633 0.000116 0.0144537 0.0275624 0.0199867 2650 
188 1 -0.000504075 0.00648311 -0.0166892 0.000116 0.0165449 0.115943 -0.0162865 2650 
2713 1 -0.000763 0.0105543 -0.016767 0.000116 0 -0.011753 0 2650 
1856 1 -0.0669059 -0.00616404 -0.0163899 0.000116 0.814257 1.11127 -3.32392 2650 
1336 1 -0.059082 -0.00568507 -0.0158658 0.000423 -9.25085 -0.180452 -2.4798 2650 
432 1 -0.0669583 -0.00194005 -0.016486 4.2e-05 -0.487837 -1.9829 1.98136 2650 
736 1 -0.003429 0.00150834 -0.016474 0.000116 0 -0.011753 0 2650 
150 1 -0.00242505 0.000860361 -0.0162668 0.000423 -0.00913371 0.00501626 0.00203877 2650 
676 1 -0.00207359 0.00202465 -0.016221 0.000423 -0.0224601 -0.00506437 -0.0314712 2650 
1679 1 -0.00362832 0.00286265 -0.0158666 0.000423 -0.000267589 -0.00703629 -0.00433961 2650 
2013 1 -0.00282643 0.003087 -0.016175 0.000423 0.00298908 -0.00809762 0.00112683 2650 
2301 1 -0.004222 0.00535634 -0.016305 4.2e-05 0 -0.011753 0 2650 
3121 1 -0.00427003 0.00501864 -0.0158442 0.000423 0.0295457 0.00139416 -0.0105356 2650 
1698 1 -0.000475264 0.00534614 -0.0165018 0.000423 0.0411176 0.0348153 -1.85855e-05 2650 
1219 1 -0.0011377 0.00619708 -0.0160559 0.000656 0.0133062 0.0257769 0.010504 2650 
3616 1 -0.0002582 0.00623708 -0.0161237 4.2e-05 0.03094 0.00266257 -0.00226281 2650 
3546 1 -0.000424894 0.00712286 -0.0161849 0.000423 0.025704 0.0149609 0.00360255 2650 
3934 1 -0.001977 0.00834534 -0.016218 0.000116 0 -0.011753 0 2650 
192 1 -0.000172908 0.00807916 -0.0158369 0.000116 0.0003015 -0.0085404 -0.100133 2650 
913 1 -0.000491972 0.0209694 -0.0162031 0.000423 -0.026838 0.11283 -0.0868357 2650 
3352 1 -0.0032886 0.0537703 -0.0163553 0.000116 -1.07965 -0.0125349 0.20351 2650 
1333 1 -0.0668385 -0.0201456 -0.015352 0.000423 -0.968055 -0.126954 2.60748 2650 
518 1 -0.0131581 -0.00438764 -0.0153193 0.000116 -1.83628 -0.212079 -2.06092 2650 
2875 1 -0.00407828 -0.00323772 -0.0157247 0.000423 -0.0431898 -0.0299994 0.0160058 2650 
1991 1 -0.00450008 0.0006012 -0.0155512 0.000656 -0.0197706 -0.00214867 0.00868857 2650 
3239 1 -0.00260223 0.00147893 -0.0154137 0.000116 -0.00859694 0.0134975 -0.018679 2650 
3589 1 -0.00665728 0.00323734 -0.0153878 0.000116 0.14668 0.065606 -0.0829889 2650 
2399 1 -0.002418 0.00379734 -0.015541 0.000116 0 -0.011753 0 2650 
2313 1 -0.00506314 0.00454752 -0.0152449 0.000656 -0.00466868 0.0472424 0.00111728 2650 
4296 1 -0.00210183 0.00511796 -0.0150144 0.000423 -0.0431702 0.0421068 0.0473826 2650 
1620 1 -0.00504283 0.0061982 -0.0154862 0.000116 0.0529387 0.0514306 -0.00503745 2650 
978 1 -0.005372 0.00704334 -0.015286 0.000116 0 -0.011753 0 2650 
2969 1 -0.00123292 0.00710248 -0.0150937 0.000656 -0.00206042 0.0293208 -0.00182506 2650 
508 1 -0.00724881 0.00784071 -0.0151719 0.000116 -0.0751391 0.010407 0.0285118 2650 
3177 1 -0.001068 0.00940134 -0.015412 4.2e-05 0 -0.011753 0 2650 
3830 1 -0.006879 0.00989734 -0.015411 4.2e-05 0 -0.011753 0 2650 
86 1 -0.002064 0.00960134 -0.015055 0.000116 0 -0.011753 0 2650 
371 1 -0.000484548 0.0102019 -0.0150444 0.000423 0.000724313 -0.00601752 -0.0061741 2650 
938 1 -0.000869 0.0108073 -0.015416 0.000116 0 -0.011753 0 2650 
3216 1 -0.00441073 0.0221524 -0.0156106 0.000423 -0.00544148 0.107266 0.0543995 2650 
2467 1 -0.00226854 0.0270522 -0.0150047 0.000423 0.0301791 0.103437 0.0421276 2650 
1357 1 -0.00519198 0.0402069 -0.0156519 0.000423 0.0681058 0.285169 -0.0155587 2650 
2118 1 -0.0670425 -0.0219859 -0.0144311 0.000423 -0.474018 -0.194375 2.20215 2650 
3502 1 -0.001236 -0.00329366 -0.014816 4.2e-05 0 -0.011753 0 2650 
1053 1 -0.007469 -4.46556e-05 -0.014946 0.000116 0 -0.011753 0 2650 
2827 1 -0.00434128 -0.000358189 -0.0143166 0.000116 -0.0201753 -0.0226203 0.0017234 2650 
3733 1 -0.00562968 0.000542402 -0.0144021 0.000656 -0.024164 0.0138988 0.0212093 2650 
2332 1 -0.00388548 0.000428358 -0.0145418 0.000423 -0.0114447 -0.00779769 0.00753018 2650 
2817 1 -0.00218912 0.000709435 -0.0146426 0.000116 0.0433674 0.00938963 -0.0130151 2650 
222 1 -0.00181186 0.00139202 -0.0147838 0.000656 -0.00732193 -0.0406633 -0.014702 2650 
2922 1 -0.00560161 0.00203236 -0.0146794 0.000116 -0.0492521 -0.0166623 -0.0574868 2650 
3637 1 -0.00345017 0.00171442 -0.0146988 0.000423 -0.00927015 0.0142513 -0.0137177 2650 
220 1 -0.003649 0.00286034 -0.014897 4.2e-05 0 -0.011753 0 2650 
234 1 -0.00233126 0.00440357 -0.0145759 0.000423 0.0351287 -0.0167305 0.0264562 2650 
2283 1 -0.00101007 0.00424673 -0.014751 0.000116 -0.0318858 -0.01081 -0.0228231 2650 
1618 1 -0.00748814 0.00543429 -0.0149783 0.000116 -0.0316941 0.0615295 0.00665882 2650 
3365 1 -0.002315 0.00622334 -0.014552 0.000116 0 -0.011753 0 2650 
1584 1 -0.00115882 0.00618662 -0.0143473 0.000423 -0.00963006 0.0395817 0.04039 2650 
2438 1 -0.00575984 0.00677635 -0.0148134 0.000423 -0.00278545 -0.000108858 -0.00379545 2650 
4227 1 -1.2712e-05 0.00757551 -0.0144623 0.000116 -0.00921828 -0.0161692 0.0154311 2650 
4190 1 -0.00798671 0.00856303 -0.0144296 0.000423 -0.009489 7.8582e-05 0.00632979 2650 
3515 1 -0.00685886 0.00816471 -0.0143358 0.000656 -0.00618896 -0.0090925 0.00826116 2650 
1617 1 -0.00463874 0.00939984 -0.0146525 0.000116 0.0304875 0.00968505 -0.0492471 2650 
1986 1 -0.00320704 0.00926019 -0.0142285 0.000656 0.00762539 0.0149956 0.0116892 2650 
1228 1 -0.0013894 0.00967028 -0.0149902 0.000423 -0.00123313 -0.0118667 -0.000623591 2650 
3669 1 -0.000340529 0.0109349 -0.0145142 0.000423 0.00220454 -0.00743356 -0.00383523 2650 
568 1 -0.00453245 0.0155875 -0.014788 0.000423 0.0183062 0.0263973 -0.10881 2650 
3932 1 -0.00571234 0.0191988 -0.0144559 0.000116 0.03152 0.0411719 0.0597923 2650 
142 1 -0.00144905 0.0216805 -0.0142936 0.000423 -0.0926872 0.0526713 -0.0970482 2650 
1915 1 -0.0672137 -0.0283343 -0.0136113 0.000423 -0.496029 0.108335 2.44944 2650 
2212 1 -0.0669225 -0.0263623 -0.0138775 0.000656 -0.541622 -0.114438 2.61278 2650 
4229 1 -0.0674587 -0.0100606 -0.0139408 0.000116 -0.634676 -0.350335 3.07117 2650 
3960 1 -0.00897611 -0.00373918 -0.0136537 0.000423 0.0154494 -0.395627 0.0325538 2650 
3196 1 -0.00661315 -0.00298374 -0.014164 0.000423 -0.0151487 -0.0348726 0.0137497 2650 
330 1 -0.00560916 -0.00258164 -0.0135959 4.2e-05 -0.0696064 -0.0147686 0.0345761 2650 
93 1 -0.00968026 -0.00234714 -0.0136845 0.000116 -0.36123 0.80528 0.277297 2650 
623 1 -0.00676146 0.000814921 -0.0141631 0.000116 -0.00477071 -0.00938024 -0.0420845 2650 
450 1 -0.00679495 0.00388346 -0.0134643 0.000656 0.0113486 0.0469175 0.00740751 2650 
3587 1 -0.00586142 0.00415724 -0.013946 0.000116 0.00461134 0.0023037 -0.00278329 2650 
3322 1 -0.00403998 0.00417757 -0.0137698 0.000423 0.0155165 0.0110838 0.0251988 2650 
4165 1 -0.00517037 0.00529986 -0.0139705 0.000656 0.00218064 -0.0455565 -0.0189851 2650 
104 1 -0.002748 0.00536467 -0.0135732 4.2e-05 -0.00674979 0.0150481 0.0116551 2650 
4310 1 -0.000542723 0.00525443 -0.0137196 0.000423 0.011252 0.0218425 0.101284 2650 
2596 1 -0.00796215 0.00654363 -0.0141353 0.000116 -0.0442582 -0.0431064 0.0384975 2650 
3950 1 -0.00591246 0.00693724 -0.013638 0.000656 -0.0388041 -0.0152844 -0.0394137 2650 
1519 1 -0.0014961 0.00702057 -0.0137884 0.000116 -0.0494896 0.0341374 0.0501115 2650 
2322 1 -0.00790945 0.00760661 -0.013724 0.000656 -0.0108707 -0.010103 0.00337555 2650 
1288 1 -0.002467 0.00752634 -0.014044 0.000116 0 -0.011753 0 2650 
2222 1 -0.000237019 0.00823055 -0.0141256 0.000423 -0.00549102 -0.00568171 -0.00117535 2650 
581 1 -0.00558445 0.00904944 -0.0141836 0.000423 -0.000469419 -0.0102297 -0.00424824 2650 
2483 1 -0.00914767 0.0100611 -0.0134794 0.000116 0.00258646 -0.0218162 0.0129531 2650 
963 1 -0.00452265 0.00969305 -0.0136409 0.000116 -0.0353923 -0.062899 -0.0407773 2650 
1476 1 -0.006941 0.0103263 -0.013435 0.000423 0 -0.011753 0 2650 
4257 1 -0.00860674 0.0115338 -0.0142068 0.000116 0.0101268 -0.0416798 0.0036163 2650 
1409 1 -0.00044 0.0113063 -0.013868 0.000116 0 -0.011753 0 2650 
3644 1 -0.000768342 0.0121355 -0.0136582 0.000423 -0.00432743 0.00711996 -0.0325914 2650 
3632 1 -0.00889434 0.0127792 -0.0138941 0.000423 -0.0221559 0.000444483 0.0133776 2650 
1447 1 -0.0673302 -0.0268815 -0.0130232 0.000423 -0.527289 0.0271905 2.71843 2650 
365 1 -0.0673922 -0.0260817 -0.0126981 0.000423 -0.508759 0.051736 2.70011 2650 
443 1 -0.067095 -0.0124406 -0.0130177 0.000656 -0.465355 0.246889 2.3985 2650 
800 1 -0.00697851 -0.00245174 -0.0134232 0.000423 -0.230051 0.0443693 -0.205138 2650 
4097 1 -0.00869976 -0.00234162 -0.0133564 0.000423 0.0242376 0.00709813 -0.00869569 2650 
2645 1 -0.00500482 -0.000824415 -0.0129842 0.000656 -0.0339684 -0.013594 0.0452752 2650 
509 1 -0.00716957 -0.000718317 -0.0129819 0.000116 -0.00521486 0.00944493 -0.0325939 2650 
3551 1 -0.00579125 -3.59321e-05 -0.0130881 0.000423 -0.0216668 0.0127937 -0.00713462 2650 
4126 1 -0.00382822 -0.000169918 -0.0134086 0.000116 -0.0261531 0.0084042 0.00402279 2650 
388 1 -0.00788139 0.00070122 -0.0127076 0.000116 0.0212466 0.0335067 0.0250458 2650 
541 1 -0.00586639 0.000439373 -0.0129766 4.2e-05 -0.0127705 -0.000255125 0.00539942 2650 
2525 1 -0.004063 0.00175334 -0.013231 4.2e-05 0 -0.011753 0 2650 
2619 1 -0.005851 0.00256934 -0.012854 0.000116 0 -0.011753 0 2650 
3880 1 -0.010277 0.00348534 -0.012913 0.000423 0 -0.011753 0 2650 
2609 1 -0.00886 0.00329334 -0.013248 0.000116 0 -0.011753 0 2650 
3645 1 -0.00469445 0.00344361 -0.0130764 0.000423 -0.0366325 -0.00935646 0.0235959 2650 
2918 1 -0.00757 0.00464434 -0.012948 0.000116 0 -0.011753 0 2650 
3917 1 -0.003984 0.00405434 -0.012703 0.000116 0 -0.011753 0 2650 
2059 1 -0.003583 0.00426334 -0.012756 0.000116 0 -0.011753 0 2650 
2512 1 -0.00977232 0.00496667 -0.0128339 0.000116 0.002514 -0.0160812 -0.0313025 2650 
1171 1 -0.00815366 0.00482093 -0.0128466 0.000116 -0.0146011 -0.0168948 -0.0399555 2650 
2219 1 -0.00488846 0.0049693 -0.0129076 0.000423 0.0573797 0.046564 0.0166916 2650 
3380 1 -0.00219264 0.00477082 -0.0131394 0.000116 -0.00133046 -0.0120531 0.0302183 2650 
4078 1 -0.00844354 0.00657535 -0.0127525 0.000423 -0.0196946 -0.00953845 0.00130892 2650 
1427 1 -0.002948 0.00659434 -0.013376 4.2e-05 0 -0.011753 0 2650 
3259 1 -0.00843338 0.00783045 -0.0131934 0.000116 -0.0089878 -0.00810535 0.00538998 2650 
2913 1 -0.00671109 0.00719888 -0.0127998 0.000116 -0.028239 -0.0119827 -0.0130286 2650 
1795 1 -0.008775 0.00859334 -0.012959 0.000423 0 -0.011753 0 2650 
1769 1 -0.00589042 0.00867973 -0.0132153 0.000656 -0.0180455 -0.00259761 -0.00548469 2650 
205 1 -0.000744 0.00931034 -0.01334 0.000116 0 -0.011753 0 2650 
233 1 -0.00479135 0.0101615 -0.0133743 0.000423 0.000342891 -0.00976437 -0.0328705 2650 
1827 1 -0.00482308 0.00983988 -0.0126943 0.000116 -0.0556457 -0.0263815 -0.0392498 2650 
3007 1 -0.000805538 0.0115909 -0.0129033 0.000423 -0.0135196 -0.00505473 -0.0280609 2650 
1775 1 -0.00822583 0.0120463 -0.0130333 0.000423 -7.29146e-05 -0.011186 -0.000346901 2650 
675 1 -0.004729 0.0193039 -0.012992 0.000423 -0.0171714 0.0807922 0.0289201 2650 
1979 1 -0.00622031 0.0208113 -0.0131823 4.2e-05 -0.060479 0.115177 0.0648972 2650 
1254 1 -0.000521574 0.022519 -0.013391 0.000423 0.138718 -0.0210939 0.0394833 2650 
2413 1 -0.0069525 -0.00210502 -0.0125855 4.2e-05 -0.0826713 -0.0311639 0.0536157 2650 
2468 1 -0.003167 -0.00184866 -0.012131 0.000423 0 -0.011753 0 2650 
545 1 -0.002328 -0.00222166 -0.012432 4.2e-05 0 -0.011753 0 2650 
1763 1 -0.001143 -0.00156066 -0.012442 0.000656 0 -0.011753 0 2650 
2127 1 -0.0103166 -0.000407549 -0.0125395 0.000423 -0.129436 0.0152094 0.099489 2650 
3191 1 -0.0066132 -0.000376532 -0.012467 0.000656 -0.0168446 0.00288294 -0.00297772 2650 
1468 1 -0.00380604 -0.000664367 -0.012507 0.000423 -0.0197001 -0.0470204 -0.0326717 2650 
3200 1 -0.00767491 0.00051742 -0.0118765 0.000423 -0.0293082 -0.00953204 0.0229812 2650 
3201 1 -0.00609966 0.000727831 -0.0126162 0.000423 -0.00608722 0.0216696 0.0089772 2650 
1422 1 -0.003881 0.000285344 -0.012349 4.2e-05 0 -0.011753 0 2650 
3778 1 -0.00543079 0.000869828 -0.0120817 0.000423 -0.0441284 0.0265152 0.0540744 2650 
1799 1 -0.00323271 0.00109565 -0.0120582 0.000423 7.10678e-05 -0.0118308 4.63239e-05 2650 
3956 1 -0.00902016 0.00193484 -0.0122974 0.000656 -0.000640959 -0.0104529 -0.000368355 2650 
3389 1 -0.010415 0.00255134 -0.012026 0.000116 0 -0.011753 0 2650 
1595 1 -0.00773443 0.00285229 -0.0119157 0.000423 -0.0081111 0.00198047 0.0261702 2650 
1125 1 -0.0047415 0.00295984 -0.0123696 0.000423 -0.0447254 0.0166037 0.0212545 2650 
2957 1 -0.00226312 0.00364518 -0.0122544 4.2e-05 0.0205169 0.0248349 -0.000218849 2650 
3826 1 -0.009208 0.00444634 -0.012552 0.000116 0 -0.011753 0 2650 
2912 1 -0.00621929 0.00445797 -0.0120415 0.000116 0.0152844 0.00719243 -0.0503855 2650 
2194 1 -0.00243166 0.00462287 -0.0125388 4.2e-05 0.00491046 0.00111596 0.00228026 2650 
708 1 -0.00269614 0.00468222 -0.0119729 0.000423 -0.0031746 -0.00580761 -0.0104884 2650 
411 1 -0.0102266 0.0047379 -0.0120879 0.000116 -0.00787832 -0.00657823 -8.20909e-05 2650 
3316 1 -0.008979 0.00519934 -0.012376 0.000423 0 -0.011753 0 2650 
1261 1 -0.00745294 0.00510718 -0.0124067 0.000423 0.000611181 -0.0114942 -0.000246774 2650 
3362 1 -0.002672 0.00521234 -0.012199 0.000116 0 -0.011753 0 2650 
3446 1 -0.002592 0.00620634 -0.012627 0.000423 0 -0.011753 0 2650 
3030 1 -0.001189 0.00670934 -0.012596 0.000116 0 -0.011753 0 2650 
1237 1 -0.0102026 0.00767411 -0.012461 0.000423 -0.0167369 -0.000264958 -0.0403827 2650 
4318 1 -0.00845583 0.00787251 -0.0124072 0.000423 -0.00589465 -0.00768269 0.00318441 2650 
2547 1 -0.0112419 0.00801018 -0.0119723 0.000423 -0.015549 0.0318736 0.0269085 2650 
191 1 -0.0114873 0.00847408 -0.0121116 0.000116 -0.0068407 0.0371391 0.023513 2650 
3847 1 -0.00972713 0.00865144 -0.0124046 0.000656 0.003414 -0.00345937 -0.00056311 2650 
1495 1 -0.004483 0.00817734 -0.012591 0.000116 0 -0.011753 0 2650 
1250 1 -0.00751656 0.00929956 -0.0126014 0.000423 -0.0109693 -0.0170514 -0.0143142 2650 
3173 1 -0.004958 0.00883834 -0.012321 4.2e-05 0 -0.011753 0 2650 
3684 1 -0.00442239 0.00870035 -0.0122019 0.000116 0.00413104 -0.0230128 -0.00941473 2650 
2630 1 -0.001036 0.00904634 -0.012074 4.2e-05 0 -0.011753 0 2650 
4002 1 -0.000443 0.00887034 -0.01223 0.000116 0 -0.011753 0 2650 
4179 1 -0.00693712 0.00947607 -0.0119344 0.000423 -0.00767678 -0.0221048 -0.00852388 2650 
949 1 -0.00597212 0.0101435 -0.0125733 0.000116 -0.0176518 0.0277962 -0.00593252 2650 
959 1 -0.00538195 0.0108366 -0.0120376 0.000116 -0.0723779 0.0623805 -0.0339909 2650 
1423 1 -0.00145 0.0105263 -0.012526 4.2e-05 0 -0.011753 0 2650 
3106 1 -0.0062338 0.0112285 -0.0118887 0.000423 -0.042507 0.0242048 -0.0146805 2650 
3798 1 -0.00250265 0.011363 -0.0122563 0.000116 -0.0483102 0.213285 0.0286816 2650 
2205 1 -0.00506095 0.0132738 -0.0119326 0.000656 -0.00206311 0.000112593 -0.00429342 2650 
1143 1 -0.00100747 0.0141689 -0.0123578 0.000423 0.0070315 0.0110531 -0.00616027 2650 
478 1 -0.00653034 0.0145216 -0.0123643 0.000423 -0.0255767 0.012458 -0.051203 2650 
3455 1 -0.0021855 0.0167461 -0.011858 0.000423 0.0108365 0.0310717 0.0944532 2650 
2109 1 -0.00524307 0.0210556 -0.0123427 0.000423 -0.0277695 0.107912 0.0279852 2650 
819 1 -0.0036085 0.0364255 -0.0121476 0.000423 0.076373 0.150736 0.0329282 2650 
2822 1 -0.0670128 -0.00490422 -0.0111482 0.000116 -3.24499 -0.121023 2.4096 2650 
1393 1 -0.0123324 -0.00281722 -0.0112199 0.000116 -0.0365642 -0.00979486 0.0367338 2650 
3505 1 -0.006952 -0.00255266 -0.011235 4.2e-05 0 -0.011753 0 2650 
1022 1 -0.002093 -0.00268266 -0.011454 0.000423 0 -0.011753 0 2650 
2172 1 -0.00997655 -0.0016976 -0.0110789 0.000116 0.0554355 0.00150652 -0.0523356 2650 
1808 1 -0.00825192 -0.00146351 -0.0115206 0.000423 -0.0860968 -0.00568456 0.0777001 2650 