ITEM: TIMESTEP
745062
ITEM: NUMBER OF ATOMS
4382
ITEM: BOX BOUNDS ff ff ff
-0.15 0.15
-0.15 0.06
-0.15 0.15
ITEM: ATOMS id type x y z radius vx vy vz density 
1760 1 -0.00471086 -0.0460849 -0.0687969 4.2e-05 -5.69368 1.70125 0.389874 2650 
741 1 -0.0131368 -0.0587005 -0.0676199 0.000116 -2.93705 -1.83705 0.570595 2650 
1845 1 -0.0320176 -0.0609663 -0.0596956 0.000116 -0.524537 1.15786 -0.488527 2650 
3143 1 -0.0385384 -0.045925 -0.0534882 0.000116 -3.12596 -1.6028 0.81183 2650 
3810 1 -0.0644482 -0.0513987 -0.0243199 0.000116 -1.27897 0.113765 3.3893 2650 
1270 1 -0.0169109 -0.0098096 -0.0667761 0.000116 -3.24548 2.83688 0.821914 2650 
4353 1 -0.0206539 -0.0101559 -0.0643187 0.000116 -3.28038 -0.509829 -10.0888 2650 
2317 1 -0.0258948 -0.0198498 -0.0632508 0.000656 -2.88554 -0.675611 1.18134 2650 
3330 1 -0.0286553 -0.012253 -0.0554966 0.000423 -4.48949 -0.629905 -8.54501 2650 
734 1 -0.0242146 -0.0119077 -0.0528446 0.000116 -3.79845 -0.583347 -8.14767 2650 
208 1 -0.0463827 -0.0104474 -0.0508762 0.000116 -3.29486 -0.406866 1.60983 2650 
843 1 -0.0496683 -0.0132596 -0.0474209 0.000116 -1.832 -0.495971 2.79716 2650 
4187 1 -0.00671231 -0.0103367 -0.037421 0.000423 -1.02401 -0.740796 -5.31637 2650 
1957 1 -0.00557813 -0.00376178 -0.0351468 0.000116 -0.814209 -0.0760223 -5.13019 2650 
821 1 -0.0173306 -0.00546561 -0.0337118 0.000423 -2.57857 -0.234508 -5.0147 2650 
2806 1 -0.00765523 -0.00576999 -0.0265294 0.000116 -1.16209 -0.307703 -3.48128 2650 
634 1 -0.0540167 -0.024326 -0.0255027 0.000116 -8.5418 -1.14463 -4.01621 2650 
4133 1 -0.0325409 -0.0170356 -0.0207905 0.000116 -5.08138 -0.836412 -3.18451 2650 
152 1 -0.0224185 -0.0120362 -0.0191636 0.000423 -3.50579 -0.467061 -3.12988 2650 
3329 1 -0.000244977 -0.00363563 -0.0166731 0.000423 -0.0470516 -0.125916 -0.963551 2650 
606 1 -0.000183 0.00510034 -0.016592 0.000116 0 -0.011753 0 2650 
2713 1 -0.000763 0.0120713 -0.016767 0.000116 0 -0.011753 0 2650 
615 1 -0.00180934 0.0139991 -0.0166521 0.000116 2.16674 -2.52943 -0.0950428 2650 
355 1 -0.0358445 -0.010503 -0.0163902 0.000423 -5.57879 -0.492712 -2.49795 2650 
691 1 -0.00129567 -0.00350706 -0.0163747 0.000423 0.00141294 -0.253794 0.106897 2650 
4116 1 -0.004072 -0.000556665 -0.016193 0.000116 0 -0.011753 0 2650 
93 1 -0.00354 -0.000145665 -0.016299 0.000116 0 -0.011753 0 2650 
1991 1 -0.002768 0.00143334 -0.01599 0.000656 0 -0.011753 0 2650 
736 1 -0.003429 0.00302534 -0.016474 0.000116 0 -0.011753 0 2650 
3645 1 -0.00137216 0.00352255 -0.0159565 0.000423 -0.018024 0.00762956 0.0274716 2650 
2013 1 -0.003166 0.00420434 -0.016002 0.000423 0 -0.011753 0 2650 
3546 1 -0.002797 0.00616234 -0.016252 0.000423 0 -0.011753 0 2650 
2301 1 -0.004222 0.00687334 -0.016305 4.2e-05 0 -0.011753 0 2650 
188 1 -0.00068 0.00664234 -0.016516 0.000116 0 -0.011753 0 2650 
3616 1 -0.000938 0.00743734 -0.016074 4.2e-05 0 -0.011753 0 2650 
728 1 -0.00304438 0.00909842 -0.0164494 0.000116 -0.0650853 0.147179 0.0609561 2650 
3934 1 -0.001977 0.00986234 -0.016218 0.000116 0 -0.011753 0 2650 
1357 1 -0.00337099 0.0121952 -0.016108 0.000423 -0.161216 0.145231 0.0442844 2650 
1655 1 -0.0606907 -0.0161244 -0.0153609 0.000656 -9.53032 -0.818673 -2.30697 2650 
3156 1 -0.000185184 -0.00419414 -0.0155231 0.000116 0.0743518 -0.273333 -1.09063 2650 
3441 1 -0.005522 -0.00222266 -0.01502 0.000423 0 -0.011753 0 2650 
3733 1 -0.00240435 -0.000854423 -0.0152397 0.000656 -0.00903733 0.00595212 -0.0173299 2650 
330 1 -0.001698 -0.000881665 -0.015557 4.2e-05 0 -0.011753 0 2650 
2965 1 -2.2e-05 -0.000575665 -0.015341 4.2e-05 0 -0.011753 0 2650 
1679 1 -0.00363589 0.00369439 -0.0153959 0.000423 0.00305589 -0.00234253 -0.00398464 2650 
1569 1 -0.00171541 0.00378712 -0.0151326 0.000423 -0.0214881 0.00570095 0.0411068 2650 
3147 1 -0.00174225 0.00436709 -0.0150985 0.000116 -0.00706837 0.0221131 0.0132401 2650 
4165 1 -0.00565912 0.0049828 -0.01506 0.000656 -0.00960923 0.0142793 -0.0281222 2650 
2399 1 -0.002418 0.00531434 -0.015541 0.000116 0 -0.011753 0 2650 
3322 1 -0.00428258 0.00580529 -0.0151794 0.000423 -0.0209456 -0.0191109 -0.033031 2650 
2701 1 -0.00374939 0.00562626 -0.0150156 0.000116 0.0331549 0.247236 -0.00676049 2650 
3789 1 -0.00227495 0.00562913 -0.0154456 0.000116 0.0751661 -0.205537 -0.0399781 2650 
4296 1 -0.0015678 0.00588736 -0.0155382 0.000423 -0.000356005 -0.0132873 -0.00240934 2650 
1986 1 -0.00419076 0.00732443 -0.0157358 0.000656 -0.00578738 0.0209481 -0.0282702 2650 
2969 1 -0.001381 0.00788434 -0.015354 0.000656 0 -0.011753 0 2650 
978 1 -0.005372 0.00856034 -0.015286 0.000116 0 -0.011753 0 2650 
2250 1 -0.0026236 0.0101622 -0.0150987 0.000423 -0.155375 0.0227889 0.0380727 2650 
3177 1 -0.001068 0.0109183 -0.015412 4.2e-05 0 -0.011753 0 2650 
3830 1 -0.006879 0.0114143 -0.015411 4.2e-05 0 -0.011753 0 2650 
86 1 -0.002064 0.0111183 -0.015055 0.000116 0 -0.011753 0 2650 
884 1 -0.00454015 0.0120617 -0.0154674 0.000656 -0.0378318 0.0387573 -0.0430688 2650 
938 1 -0.000869 0.0123243 -0.015416 0.000116 0 -0.011753 0 2650 
3632 1 -0.006134 0.0130403 -0.015144 0.000423 0 -0.011753 0 2650 
3294 1 -0.00571057 0.023104 -0.0150056 0.000656 -0.0563035 0.49326 0.113749 2650 
2256 1 -0.001753 -0.00277166 -0.014775 0.000116 0 -0.011753 0 2650 
747 1 -0.001416 -0.00275166 -0.014317 0.000116 0 -0.011753 0 2650 
3295 1 -0.00211218 -0.00185826 -0.0144435 0.000656 -0.0259609 -0.0460209 -0.0625831 2650 
3502 1 -0.001236 -0.00177666 -0.014816 4.2e-05 0 -0.011753 0 2650 
3303 1 -0.00664742 -0.000626819 -0.0142888 0.000656 -0.0119966 -0.0726635 -0.0251966 2650 
1640 1 -0.001358 -0.000443665 -0.014495 4.2e-05 0 -0.011753 0 2650 
2313 1 -0.005044 0.000400335 -0.014923 0.000656 0 -0.011753 0 2650 
2413 1 -0.003433 0.000238335 -0.014868 4.2e-05 0 -0.011753 0 2650 
1053 1 -0.007469 0.00147234 -0.014946 0.000116 0 -0.011753 0 2650 
2332 1 -0.003268 0.00176334 -0.014853 0.000423 0 -0.011753 0 2650 
3239 1 -0.002155 0.00168234 -0.014442 0.000116 0 -0.011753 0 2650 
2547 1 -0.0071134 0.00378336 -0.0147587 0.000423 -0.044095 0.0528746 0.0464883 2650 
1059 1 -0.00664367 0.00447552 -0.0149311 0.000116 -0.00283744 0.0139983 0.106712 2650 
220 1 -0.003649 0.00437734 -0.014897 4.2e-05 0 -0.011753 0 2650 
104 1 -0.00218 0.00462634 -0.014554 4.2e-05 0 -0.011753 0 2650 
3121 1 -0.007407 0.00519634 -0.014654 0.000423 0 -0.011753 0 2650 
3564 1 -0.000147 0.00710334 -0.014738 0.000423 0 -0.011753 0 2650 
2438 1 -0.005612 0.00767534 -0.014612 0.000423 0 -0.011753 0 2650 
3365 1 -0.002315 0.00774034 -0.014552 0.000116 0 -0.011753 0 2650 
713 1 -0.00428086 0.00844365 -0.0145528 0.000423 -0.0333908 0.0368981 0.0147375 2650 
4190 1 -0.007319 0.00941034 -0.014559 0.000423 0 -0.011753 0 2650 
3515 1 -0.00475194 0.00975143 -0.0147723 0.000656 -0.002104 -0.0107719 -0.00140178 2650 
371 1 -0.000507 0.0109933 -0.014221 0.000423 0 -0.011753 0 2650 
1228 1 -0.001302 0.0111953 -0.014946 0.000423 0 -0.011753 0 2650 
3588 1 -0.00760411 0.0198485 -0.0148747 0.000116 0.500572 0.21911 0.239725 2650 
3155 1 -0.00704237 0.0531301 -0.0150169 0.000116 1.59285 -0.963751 -0.697238 2650 
4372 1 -0.00419499 -0.00578888 -0.0136136 4.2e-05 -0.441226 -0.612981 -1.83013 2650 
1818 1 -0.00836538 -0.00357241 -0.0141891 0.000116 -1.10011 -0.0588719 -1.86597 2650 
1943 1 -0.002925 -0.00322566 -0.01374 0.000116 0 -0.011753 0 2650 
3229 1 -0.006614 -0.00265366 -0.01374 0.000423 0 -0.011753 0 2650 
327 1 -0.003849 -0.00253366 -0.013874 4.2e-05 0 -0.011753 0 2650 
2705 1 -0.001432 -0.00271466 -0.013674 0.000116 0 -0.011753 0 2650 
2939 1 -0.008405 -0.00173066 -0.013483 0.000116 0 -0.011753 0 2650 
3622 1 -0.00551364 -0.00194564 -0.0134635 0.000656 0.00467838 -0.0472728 -0.0117267 2650 
1393 1 -0.009523 -0.00142666 -0.013534 0.000116 0 -0.011753 0 2650 
2783 1 -0.003328 -0.000391665 -0.013758 0.000423 0 -0.011753 0 2650 
4126 1 -0.001667 -0.000318665 -0.013741 0.000116 0 -0.011753 0 2650 
3778 1 -0.003893 0.00112534 -0.013816 0.000423 0 -0.011753 0 2650 
1620 1 -0.008456 0.00314434 -0.013856 0.000116 0 -0.011753 0 2650 
1589 1 -0.00824616 0.00366229 -0.0139198 0.000423 -0.0647442 0.0335493 0.0762813 2650 
3587 1 -0.006279 0.00440134 -0.013694 0.000116 0 -0.011753 0 2650 
1219 1 -0.0047505 0.00425806 -0.0141378 0.000656 0.035204 0.0225104 -0.0281999 2650 
2485 1 -0.006627 0.00474834 -0.014195 0.000116 0 -0.011753 0 2650 
2763 1 -0.00207895 0.00612083 -0.0137716 0.000423 0.119869 -0.206142 0.149591 2650 
3035 1 -0.00884526 0.00737396 -0.0138889 0.000116 -0.282738 0.0673194 0.0121247 2650 
1327 1 -0.00807988 0.00722035 -0.0139678 0.000656 -0.242291 0.0887282 -0.0259957 2650 
2777 1 -0.00476872 0.00779253 -0.0135333 0.000423 -0.0600041 0.0325706 0.0604979 2650 
1288 1 -0.002467 0.00904334 -0.014044 0.000116 0 -0.011753 0 2650 
1974 1 -0.0021 0.00976434 -0.01365 4.2e-05 0 -0.011753 0 2650 
171 1 -0.001998 0.00966534 -0.013459 0.000116 0 -0.011753 0 2650 
2222 1 -0.000169 0.00967234 -0.014111 0.000423 0 -0.011753 0 2650 
581 1 -0.005568 0.0105643 -0.014167 0.000423 0 -0.011753 0 2650 
4314 1 -0.00289922 0.0112074 -0.0136033 0.000423 -0.092085 0.0376702 0.0423056 2650 
1346 1 -0.00147115 0.0116232 -0.0135268 0.000423 0.0112383 0.146251 0.0960885 2650 
1476 1 -0.006941 0.0118433 -0.013435 0.000423 0 -0.011753 0 2650 
3669 1 -0.000597 0.0119493 -0.014068 0.000423 0 -0.011753 0 2650 
1409 1 -0.00044 0.0128233 -0.013868 0.000116 0 -0.011753 0 2650 
428 1 -0.00922 -0.00268466 -0.013206 0.000116 0 -0.011753 0 2650 
3015 1 -0.008364 -0.00273966 -0.013043 0.000423 0 -0.011753 0 2650 
827 1 -0.005975 -0.00285766 -0.013005 0.000116 0 -0.011753 0 2650 
167 1 -0.004273 -0.00269966 -0.012826 0.000116 0 -0.011753 0 2650 
2732 1 -0.002992 -0.00276466 -0.013183 0.000116 0 -0.011753 0 2650 
3633 1 -0.00941 -0.00216066 -0.013111 0.000423 0 -0.011753 0 2650 
1487 1 -0.004643 -0.00229066 -0.013241 0.000116 0 -0.011753 0 2650 
2685 1 -0.00735117 -0.00150179 -0.0129765 0.000423 -0.0312052 -0.0791633 0.0473875 2650 
1924 1 -0.010202 -0.00029567 -0.0128971 0.000423 -0.0691704 -0.0593972 -0.0152165 2650 
4056 1 -0.00549082 -0.000679076 -0.0130596 0.000656 0.0589984 -0.0321199 -0.018168 2650 
249 1 -0.00933454 5.10937e-05 -0.0127606 0.000423 -0.0404414 -0.0377152 0.0629853 2650 
3551 1 -0.005293 0.00118434 -0.013215 0.000423 0 -0.011753 0 2650 
1125 1 -0.000165 0.00177134 -0.013134 0.000423 0 -0.011753 0 2650 
4371 1 -0.000719 0.00258234 -0.012831 0.000116 0 -0.011753 0 2650 
2283 1 -0.000701 0.00289734 -0.012847 0.000116 0 -0.011753 0 2650 
1595 1 -0.007474 0.00392834 -0.012756 0.000423 0 -0.011753 0 2650 
2253 1 -0.00415376 0.00366985 -0.0127439 0.000423 0.0920831 0.035812 0.016033 2650 
2525 1 -0.004063 0.00327034 -0.013231 4.2e-05 0 -0.011753 0 2650 
2619 1 -0.005851 0.00408634 -0.012854 0.000116 0 -0.011753 0 2650 
3880 1 -0.010277 0.00500234 -0.012913 0.000423 0 -0.011753 0 2650 
2609 1 -0.00886 0.00481034 -0.013248 0.000116 0 -0.011753 0 2650 
2194 1 -0.002781 0.00522434 -0.012701 4.2e-05 0 -0.011753 0 2650 
933 1 -0.00838204 0.00567414 -0.0131364 0.000423 -0.205621 0.0138782 0.00393424 2650 
2918 1 -0.00757 0.00616134 -0.012948 0.000116 0 -0.011753 0 2650 
3917 1 -0.003984 0.00557134 -0.012703 0.000116 0 -0.011753 0 2650 
2059 1 -0.003583 0.00578034 -0.012756 0.000116 0 -0.011753 0 2650 
4241 1 -0.00121 0.00565534 -0.012987 0.000116 0 -0.011753 0 2650 
4078 1 -0.0061373 0.00770359 -0.0128933 0.000423 0.00523349 0.00134176 -0.00166274 2650 
2322 1 -0.0069122 0.00834733 -0.0133611 0.000656 -0.00732336 -0.00366906 -0.00588437 2650 
1427 1 -0.002948 0.00811134 -0.013376 4.2e-05 0 -0.011753 0 2650 
3259 1 -0.008055 0.00917634 -0.013388 0.000116 0 -0.011753 0 2650 
4318 1 -0.00769499 0.00886414 -0.0128182 0.000423 -0.00589465 -0.00768269 0.00318441 2650 
1795 1 -0.008775 0.0101103 -0.012959 0.000423 0 -0.011753 0 2650 
1769 1 -0.004822 0.0100313 -0.013243 0.000656 0 -0.011753 0 2650 
2270 1 -0.000860756 0.0103656 -0.0132584 0.000116 0.291765 0.176844 -0.393424 2650 
205 1 -0.000744 0.0108273 -0.01334 0.000116 0 -0.011753 0 2650 
4160 1 -0.006657 0.0131933 -0.013271 4.2e-05 0 -0.011753 0 2650 
1775 1 -0.008218 0.0135023 -0.012996 0.000423 0 -0.011753 0 2650 
3644 1 -0.000733 0.0134983 -0.013392 0.000423 0 -0.011753 0 2650 
2722 1 -0.0105587 0.0214643 -0.0131431 0.000116 -0.375324 0.405951 -0.00725073 2650 
2957 1 -0.010592 -0.00248066 -0.012102 4.2e-05 0 -0.011753 0 2650 
4068 1 -0.001953 -0.00299866 -0.012327 0.000423 0 -0.011753 0 2650 
868 1 -0.000201 -0.00253066 -0.012301 0.000116 0 -0.011753 0 2650 
2238 1 -0.00701 -0.00226666 -0.01254 0.000423 0 -0.011753 0 2650 
3200 1 -0.00614282 -0.00162178 -0.0124622 0.000423 -0.0037223 -0.0499527 0.010669 2650 
4150 1 -0.001319 -0.00215566 -0.012208 0.000116 0 -0.011753 0 2650 
3261 1 -0.010456 -0.00130666 -0.012294 0.000116 0 -0.011753 0 2650 
3385 1 -0.00330038 -0.00131279 -0.0120664 0.000116 0.210455 -0.166631 -0.035107 2650 
2819 1 -0.007468 -0.000170665 -0.012046 0.000116 0 -0.011753 0 2650 
2468 1 -0.003167 -0.000331665 -0.012131 0.000423 0 -0.011753 0 2650 
545 1 -0.002328 -0.000704665 -0.012432 4.2e-05 0 -0.011753 0 2650 
1763 1 -0.001143 -4.36646e-05 -0.012442 0.000656 0 -0.011753 0 2650 
950 1 -0.010031 0.000561335 -0.011866 0.000116 0 -0.011753 0 2650 
3643 1 -0.00430703 0.00102393 -0.0121483 0.000423 0.00104772 -0.00904669 0.00573747 2650 
1901 1 -0.00330669 0.00104084 -0.0125556 0.000423 -0.0507742 -0.0533762 0.0503681 2650 
3637 1 -0.002026 0.00113534 -0.012108 0.000423 0 -0.011753 0 2650 
3411 1 -0.0103841 0.00218174 -0.0125089 0.000656 0.0140632 0.0288977 0.0473557 2650 
623 1 -0.005429 0.00230934 -0.012246 0.000116 0 -0.011753 0 2650 
1422 1 -0.003881 0.00180234 -0.012349 4.2e-05 0 -0.011753 0 2650 
1799 1 -0.003237 0.00261734 -0.012061 0.000423 0 -0.011753 0 2650 
2813 1 -1e-05 0.00246934 -0.012237 0.000116 0 -0.011753 0 2650 
3956 1 -0.008956 0.00338834 -0.012273 0.000656 0 -0.011753 0 2650 
2690 1 -0.000333 0.00324034 -0.012265 0.000423 0 -0.011753 0 2650 
3389 1 -0.010415 0.00406834 -0.012026 0.000116 0 -0.011753 0 2650 
856 1 -0.00389 0.00428734 -0.0119 0.000116 0 -0.011753 0 2650 
1657 1 -0.00860149 0.00526576 -0.0120215 0.000656 -0.00770092 -0.0112608 -0.00233815 2650 
411 1 -0.009436 0.00573634 -0.012079 0.000116 0 -0.011753 0 2650 
3826 1 -0.009208 0.00596334 -0.012552 0.000116 0 -0.011753 0 2650 
3316 1 -0.008979 0.00671634 -0.012376 0.000423 0 -0.011753 0 2650 
1261 1 -0.007462 0.00662034 -0.012403 0.000423 0 -0.011753 0 2650 
3362 1 -0.002672 0.00672934 -0.012199 0.000116 0 -0.011753 0 2650 
3446 1 -0.002592 0.00772334 -0.012627 0.000423 0 -0.011753 0 2650 
1590 1 -0.008874 0.00791034 -0.012037 0.000423 0 -0.011753 0 2650 
3030 1 -0.001189 0.00822634 -0.012596 0.000116 0 -0.011753 0 2650 
70 1 -0.010029 0.00915134 -0.01242 0.000116 0 -0.011753 0 2650 
191 1 -0.011348 0.00954734 -0.012254 0.000116 0 -0.011753 0 2650 
3847 1 -0.009739 0.0101483 -0.012406 0.000656 0 -0.011753 0 2650 
1495 1 -0.004483 0.00969434 -0.012591 0.000116 0 -0.011753 0 2650 
1250 1 -0.007399 0.0108733 -0.012448 0.000423 0 -0.011753 0 2650 
3173 1 -0.004958 0.0103553 -0.012321 4.2e-05 0 -0.011753 0 2650 
2109 1 -0.001932 0.0104943 -0.012277 0.000423 0 -0.011753 0 2650 
2630 1 -0.001036 0.0105633 -0.012074 4.2e-05 0 -0.011753 0 2650 
4002 1 -0.000443 0.0103873 -0.01223 0.000116 0 -0.011753 0 2650 
65 1 -0.009488 0.0117683 -0.011959 0.000116 0 -0.011753 0 2650 
911 1 -0.00498996 0.0117335 -0.0122903 0.000423 -0.153272 0.0598619 0.0257807 2650 
1900 1 -0.00363438 0.0120994 -0.0122537 0.000423 -0.0355934 0.197623 0.0655201 2650 
1423 1 -0.00145 0.0120433 -0.012526 4.2e-05 0 -0.011753 0 2650 
2483 1 -0.008006 0.0129253 -0.012441 0.000116 0 -0.011753 0 2650 
1578 1 -0.007713 0.0127643 -0.011972 0.000423 0 -0.011753 0 2650 
2205 1 -0.00482195 0.0132143 -0.0123342 0.000656 0.000183776 -0.0119531 -0.000657984 2650 
4365 1 -0.00398422 0.0127099 -0.0124334 0.000116 -0.0372545 0.279327 0.100572 2650 
1525 1 -0.00501783 0.019919 -0.0122839 0.000116 0.0348354 0.358887 0.286739 2650 
200 1 -0.0670085 -0.0195058 -0.0112377 0.000116 2.35501 -0.62046 3.53139 2650 
704 1 -0.01034 -0.00295166 -0.011479 0.000423 0 -0.011753 0 2650 
3999 1 -0.005715 -0.00279566 -0.011742 0.000423 0 -0.011753 0 2650 
3679 1 -0.012092 -0.00199366 -0.011604 0.000116 0 -0.011753 0 2650 
2072 1 -0.009308 -0.00213166 -0.011721 0.000116 0 -0.011753 0 2650 
3505 1 -0.006952 -0.00103566 -0.011235 4.2e-05 0 -0.011753 0 2650 
3191 1 -0.00410521 -0.00146225 -0.0114914 0.000656 -0.0510693 0.0111346 -0.000610684 2650 
1022 1 -0.002093 -0.00116566 -0.011454 0.000423 0 -0.011753 0 2650 
123 1 -0.010848 -0.000471665 -0.011246 0.000423 0 -0.011753 0 2650 
2166 1 -0.009005 -0.000625665 -0.011549 0.000116 0 -0.011753 0 2650 
2022 1 -0.004959 -0.000470665 -0.011261 0.000423 0 -0.011753 0 2650 
250 1 -0.00978661 2.20773e-05 -0.0115747 0.000423 -0.0890212 -0.0320774 0.165991 2650 
2827 1 -0.001988 0.000503335 -0.011163 0.000116 0 -0.011753 0 2650 
440 1 -0.00061 0.000266335 -0.011485 4.2e-05 0 -0.011753 0 2650 
3311 1 -0.0098554 0.000970097 -0.0110539 0.000423 -0.111153 -0.0423504 0.063632 2650 
1452 1 -0.00140857 0.00220361 -0.0112515 0.000423 0.00554637 -0.012591 0.0031522 2650 
4215 1 -0.011184 0.00237534 -0.011524 0.000423 0 -0.011753 0 2650 
2279 1 -0.011345 0.00293834 -0.01145 0.000116 0 -0.011753 0 2650 
2579 1 -0.008716 0.00238534 -0.011261 0.000423 0 -0.011753 0 2650 
2293 1 -0.00177814 0.00247253 -0.0117557 0.000116 0.0416688 0.071753 -0.100968 2650 
3535 1 -9.9e-05 0.00267834 -0.011488 0.000423 0 -0.011753 0 2650 
3223 1 -0.010476 0.00348034 -0.011335 0.000423 0 -0.011753 0 2650 
3894 1 -0.005583 0.00343734 -0.011098 0.000116 0 -0.011753 0 2650 
3201 1 -0.0034411 0.00357539 -0.0117554 0.000423 0.0982966 0.0107837 0.0662699 2650 
1063 1 -0.009531 0.00399234 -0.011683 0.000116 0 -0.011753 0 2650 
3383 1 -0.011681 0.00498734 -0.011229 0.000116 0 -0.011753 0 2650 
3542 1 -0.003838 0.00516334 -0.011253 0.000423 0 -0.011753 0 2650 
2471 1 -0.00728781 0.00570119 -0.0117911 0.000423 -0.0907234 0.0202287 0.0449903 2650 
2294 1 -0.004894 0.00567334 -0.011565 0.000116 0 -0.011753 0 2650 
878 1 -0.003908 0.00615634 -0.011202 4.2e-05 0 -0.011753 0 2650 
708 1 -0.00252 0.00586934 -0.011391 0.000423 0 -0.011753 0 2650 
1822 1 -0.008034 0.00672634 -0.011166 0.000116 0 -0.011753 0 2650 
234 1 -0.004437 0.00669934 -0.011677 0.000423 0 -0.011753 0 2650 
1758 1 -0.00201 0.00698734 -0.01144 4.2e-05 0 -0.011753 0 2650 
1215 1 -0.009596 0.00728034 -0.01151 0.000656 0 -0.011753 0 2650 
4066 1 -0.00627881 0.00826651 -0.0118047 0.000656 -0.00432864 0.007729 0.025362 2650 
4027 1 -0.003218 0.00811834 -0.011075 0.000116 0 -0.011753 0 2650 
2409 1 -0.002586 0.00805734 -0.011527 4.2e-05 0 -0.011753 0 2650 
222 1 -0.00125672 0.00810951 -0.0111459 0.000656 0.00133262 -0.0109893 -0.000355127 2650 
2798 1 -0.008755 0.00915734 -0.01131 0.000423 0 -0.011753 0 2650 
1381 1 -0.00280471 0.0088614 -0.0115747 0.000116 -0.123304 0.190039 -0.120274 2650 
2913 1 -0.00298275 0.00876563 -0.0114286 0.000116 -0.0362513 -0.0139142 0.0167742 2650 
823 1 -0.000639 0.00929234 -0.011216 0.000423 0 -0.011753 0 2650 
1617 1 -0.00424 0.0100463 -0.011492 0.000116 0 -0.011753 0 2650 
2596 1 -0.001219 0.00960134 -0.011432 0.000116 0 -0.011753 0 2650 
3684 1 -0.00483 0.0113283 -0.011273 0.000116 0 -0.011753 0 2650 
1663 1 -0.009704 0.0124413 -0.011499 0.000423 0 -0.011753 0 2650 
3145 1 -0.006381 0.0125093 -0.011273 0.000116 0 -0.011753 0 2650 
1143 1 -0.00194231 0.0128323 -0.0116811 0.000423 0.00744219 0.00969658 -0.00437689 2650 
2111 1 -0.009632 0.0134283 -0.011343 0.000423 0 -0.011753 0 2650 
976 1 -0.005828 0.0138863 -0.011785 0.000116 0 -0.011753 0 2650 
1826 1 -0.00491407 0.0135744 -0.0116406 0.000116 0.269854 0.44368 -0.0816137 2650 
2820 1 -0.007052 -0.00277566 -0.010962 0.000116 0 -0.011753 0 2650 
3265 1 -0.006001 -0.00278766 -0.010684 0.000116 0 -0.011753 0 2650 
4373 1 -0.004239 -0.00176966 -0.010869 4.2e-05 0 -0.011753 0 2650 
3426 1 -0.000992 -0.00202966 -0.010574 0.000423 0 -0.011753 0 2650 
3603 1 -0.004768 -0.00143166 -0.010424 0.000116 0 -0.011753 0 2650 
15 1 -0.001892 -0.00137866 -0.010407 0.000423 0 -0.011753 0 2650 
2848 1 -0.010456 -0.000734665 -0.010698 4.2e-05 0 -0.011753 0 2650 
3640 1 -0.009654 -0.000573665 -0.010891 0.000423 0 -0.011753 0 2650 
3093 1 -0.002889 -0.000139665 -0.010782 0.000423 0 -0.011753 0 2650 
2130 1 -0.000316 -0.000314665 -0.010491 0.000423 0 -0.011753 0 2650 
3960 1 -0.008634 0.000173335 -0.010875 0.000423 0 -0.011753 0 2650 
388 1 -0.008271 0.000769335 -0.010879 0.000116 0 -0.011753 0 2650 
3673 1 -0.00272 0.000715335 -0.010833 0.000423 0 -0.011753 0 2650 
3284 1 -0.001323 0.000740335 -0.010635 4.2e-05 0 -0.011753 0 2650 
1193 1 -4.3e-05 0.000251335 -0.010628 0.000116 0 -0.011753 0 2650 
3866 1 -0.011939 0.00122734 -0.01034 0.000423 0 -0.011753 0 2650 
281 1 -0.00977877 0.000909414 -0.0104691 0.000116 -0.0247285 -0.0289523 0.0947819 2650 
2542 1 -0.005905 0.00105434 -0.010347 0.000423 0 -0.011753 0 2650 
3530 1 -0.000573 0.00121034 -0.010526 0.000423 0 -0.011753 0 2650 
1233 1 -0.012882 0.00236934 -0.010287 0.000423 0 -0.011753 0 2650 
4104 1 -0.009745 0.00312834 -0.010868 0.000423 0 -0.011753 0 2650 
497 1 -0.00574 0.00336334 -0.010398 0.000116 0 -0.011753 0 2650 
124 1 -0.005032 0.00326834 -0.01051 0.000423 0 -0.011753 0 2650 
1192 1 -0.004051 0.00358734 -0.010435 0.000116 0 -0.011753 0 2650 
3235 1 -0.00646301 0.0046333 -0.0110414 0.000423 -0.00988696 -0.0212582 0.0528137 2650 
2912 1 -0.006578 0.00553034 -0.010859 0.000116 0 -0.011753 0 2650 
3787 1 -0.006362 0.00596634 -0.010668 0.000116 0 -0.011753 0 2650 
760 1 -0.006943 0.00630334 -0.010573 4.2e-05 0 -0.011753 0 2650 
861 1 -0.006339 0.00647734 -0.010358 0.000116 0 -0.011753 0 2650 
2326 1 -0.011808 0.00725634 -0.010725 0.000423 0 -0.011753 0 2650 
2500 1 -0.010648 0.00785234 -0.010771 0.000116 0 -0.011753 0 2650 
2948 1 -0.002008 0.00766934 -0.010384 0.000116 0 -0.011753 0 2650 
4166 1 -0.004213 0.00795934 -0.01052 0.000656 0 -0.011753 0 2650 
3727 1 -0.004412 0.00860734 -0.010287 4.2e-05 0 -0.011753 0 2650 
3456 1 -0.00343222 0.00872885 -0.0106831 0.000423 -0.00364508 -0.0138266 -0.0038965 2650 
3106 1 -0.00116877 0.00909395 -0.0105508 0.000423 0.0496806 -0.0447246 -0.59514 2650 
1010 1 -0.011662 0.00986534 -0.010903 0.000423 0 -0.011753 0 2650 
3132 1 -0.007716 0.00992834 -0.01033 0.000116 0 -0.011753 0 2650 
1935 1 -0.00351136 0.00982656 -0.0109545 0.000116 -0.0650223 -0.119388 0.0262199 2650 
2097 1 -0.00889 0.0104213 -0.010395 0.000656 0 -0.011753 0 2650 
89 1 -0.003936 0.0104733 -0.010466 0.000116 0 -0.011753 0 2650 
2759 1 -0.011495 0.0114213 -0.010915 0.000656 0 -0.011753 0 2650 
1376 1 -0.009927 0.0111673 -0.010971 0.000116 0 -0.011753 0 2650 
2261 1 -0.007381 0.0115183 -0.010514 0.000116 0 -0.011753 0 2650 
233 1 -0.004974 0.0117543 -0.010958 0.000423 0 -0.011753 0 2650 
2260 1 -0.008542 0.0121393 -0.010892 0.000116 0 -0.011753 0 2650 
1802 1 -0.004638 0.0125143 -0.010282 0.000423 0 -0.011753 0 2650 
4167 1 -0.003538 0.0118613 -0.010916 0.000656 0 -0.011753 0 2650 
499 1 -0.011613 0.0128893 -0.010379 0.000116 0 -0.011753 0 2650 
1754 1 -0.008854 0.0129953 -0.010611 4.2e-05 0 -0.011753 0 2650 
1913 1 -0.008189 0.0131293 -0.010954 0.000423 0 -0.011753 0 2650 
3899 1 -0.004387 0.0130133 -0.010427 0.000116 0 -0.011753 0 2650 
3595 1 -0.007357 0.0136983 -0.010628 0.000116 0 -0.011753 0 2650 
3767 1 -0.006013 0.0136143 -0.010843 0.000423 0 -0.011753 0 2650 
963 1 -0.000669 0.0136773 -0.010387 0.000116 0 -0.011753 0 2650 
3875 1 -0.0112669 -0.00391647 -0.00966647 0.000423 -1.21297 -0.147087 -0.853929 2650 
1068 1 -0.01118 -0.00297466 -0.009643 0.000116 0 -0.011753 0 2650 
4285 1 -0.00960905 -0.00284593 -0.00993002 0.000423 -0.0326668 -0.0127335 -0.0140672 2650 
3409 1 -0.00853735 -0.0029972 -0.00962012 0.000656 -0.0237104 -0.0329197 -0.0228617 2650 
3652 1 -0.0110789 -0.00210328 -0.00954705 0.000423 -0.0103103 -0.0416486 0.00256542 2650 
3933 1 -0.006596 -0.00206866 -0.009623 0.000116 0 -0.011753 0 2650 
939 1 -0.001916 -0.00101266 -0.009682 0.000116 0 -0.011753 0 2650 
1630 1 -0.00227 -0.000947665 -0.00958 0.000116 0 -0.011753 0 2650 
417 1 -0.004944 -0.000702665 -0.009884 0.000116 0 -0.011753 0 2650 
3460 1 -0.013084 0.000157335 -0.009951 0.000116 0 -0.011753 0 2650 
2778 1 -0.01202 0.000422335 -0.00976 0.000423 0 -0.011753 0 2650 
3756 1 -0.00908161 0.00021602 -0.0098765 0.000423 -0.135759 0.0517513 -0.0013875 2650 
1750 1 -0.011512 0.00106434 -0.01018 4.2e-05 0 -0.011753 0 2650 
1160 1 -0.010117 0.00128034 -0.010115 0.000116 0 -0.011753 0 2650 
3264 1 -0.003542 0.00125134 -0.010108 0.000116 0 -0.011753 0 2650 
1562 1 -0.002141 0.000822335 -0.010154 0.000423 0 -0.011753 0 2650 
800 1 -0.00114 0.00154134 -0.009738 0.000423 0 -0.011753 0 2650 
2164 1 -0.012835 0.00168734 -0.009898 0.000116 0 -0.011753 0 2650 
2975 1 -0.011752 0.00230034 -0.009985 0.000656 0 -0.011753 0 2650 
3135 1 -0.00038 0.00221734 -0.010152 0.000116 0 -0.011753 0 2650 
3832 1 -0.01255 0.00266934 -0.009616 4.2e-05 0 -0.011753 0 2650 
4374 1 -0.008921 0.00243534 -0.009568 4.2e-05 0 -0.011753 0 2650 
3250 1 -0.008233 0.00240834 -0.010036 0.000116 0 -0.011753 0 2650 
2065 1 -0.000904337 0.00287915 -0.00988817 0.000116 0.305823 -0.113786 -0.28656 2650 
3324 1 -0.011452 0.00394594 -0.00982081 0.000423 -0.0148526 -0.0100043 0.0122397 2650 
1977 1 -0.006037 0.00367834 -0.009842 4.2e-05 0 -0.011753 0 2650 
364 1 -0.008943 0.00463834 -0.009746 0.000423 0 -0.011753 0 2650 
3031 1 -0.011934 0.00517834 -0.00971 0.000116 0 -0.011753 0 2650 
2474 1 -0.001928 0.00502234 -0.009724 0.000423 0 -0.011753 0 2650 
3790 1 -0.012918 0.00560934 -0.010098 0.000116 0 -0.011753 0 2650 
3116 1 -0.01058 0.00567934 -0.009568 0.000423 0 -0.011753 0 2650 
958 1 -0.001223 0.00617734 -0.009713 0.000116 0 -0.011753 0 2650 
4256 1 -0.007946 0.00637234 -0.010197 0.000116 0 -0.011753 0 2650 
3364 1 -0.006241 0.00647134 -0.010015 0.000116 0 -0.011753 0 2650 
1310 1 -0.011355 0.00773134 -0.010263 4.2e-05 0 -0.011753 0 2650 
4013 1 -0.00453243 0.00720742 -0.00983357 0.000116 0.120721 0.294041 -0.0401455 2650 
3071 1 -0.009089 0.00853634 -0.009836 4.2e-05 0 -0.011753 0 2650 
3967 1 -0.00798534 0.0100486 -0.00956558 0.000423 -0.00817862 -0.00706642 0.00830439 2650 
2581 1 -0.004751 0.00953334 -0.01 0.000423 0 -0.011753 0 2650 
2344 1 -0.001557 0.0104343 -0.009839 0.000423 0 -0.011753 0 2650 
3361 1 -5.4e-05 0.0106833 -0.010103 0.000116 0 -0.011753 0 2650 
3784 1 -0.0078687 0.0117911 -0.00947468 0.000116 -0.153494 0.0819907 -0.0140492 2650 
301 1 -0.005514 0.0115723 -0.009906 0.000116 0 -0.011753 0 2650 
660 1 -0.002925 0.0120133 -0.009723 4.2e-05 0 -0.011753 0 2650 
1827 1 -0.000405 0.0125183 -0.009578 0.000116 0 -0.011753 0 2650 
1087 1 -0.005985 0.0128253 -0.009545 0.000116 0 -0.011753 0 2650 
2781 1 -0.00317496 0.0129928 -0.0100119 0.000423 -0.0117237 -0.0176724 0.00043508 2650 
947 1 -0.0152662 -0.00450014 -0.00896759 0.000116 -0.805001 -0.416823 -0.446719 2650 
2224 1 -0.00482219 -0.00325473 -0.00921333 0.000423 -0.100506 -0.0985008 -0.0561641 2650 
1239 1 -0.00344279 -0.00327634 -0.0090766 0.000423 -0.0115938 -0.0219663 -0.0161915 2650 
2846 1 -0.006122 -0.00315466 -0.009068 4.2e-05 0 -0.011753 0 2650 
1787 1 -0.012291 -0.00178266 -0.008935 0.000423 0 -0.011753 0 2650 
661 1 -0.0082831 -0.00172873 -0.00904785 0.000656 -0.0248865 -0.0346178 0.0286859 2650 
756 1 -0.007322 -0.00180366 -0.009147 0.000116 0 -0.011753 0 2650 
4306 1 -0.0104606 -0.00156498 -0.00921229 0.000423 -0.126995 0.0327832 -0.0544925 2650 
3393 1 -0.006109 -0.000543665 -0.008736 4.2e-05 0 -0.011753 0 2650 
1690 1 -0.004681 -0.000666665 -0.00917 0.000423 0 -0.011753 0 2650 
2436 1 -0.00846549 0.000681513 -0.00930192 0.000423 -0.243386 -0.136927 0.0258156 2650 
159 1 -0.005821 6.83354e-05 -0.009096 0.000423 0 -0.011753 0 2650 
193 1 -0.010056 0.00182234 -0.009264 0.000116 0 -0.011753 0 2650 
2299 1 -0.003792 0.00227534 -0.009457 4.2e-05 0 -0.011753 0 2650 
1184 1 -0.011934 0.00286334 -0.00927 0.000116 0 -0.011753 0 2650 
3450 1 -0.011877 0.00261134 -0.008756 0.000423 0 -0.011753 0 2650 
608 1 -0.01048 0.00238134 -0.008875 0.000116 0 -0.011753 0 2650 
1121 1 -0.002698 0.00249334 -0.00928 0.000423 0 -0.011753 0 2650 
2541 1 -0.00657604 0.00412594 -0.00924214 0.000656 -0.00129575 -0.0112361 0.000264226 2650 
3558 1 -0.007141 0.00535434 -0.00937 0.000423 0 -0.011753 0 2650 
1171 1 -0.008755 0.00601134 -0.00943 0.000116 0 -0.011753 0 2650 
1567 1 -0.008425 0.00697034 -0.008875 0.000423 0 -0.011753 0 2650 
1584 1 -0.005051 0.00690534 -0.00882 0.000423 0 -0.011753 0 2650 
3984 1 -0.012135 0.00782234 -0.009019 0.000423 0 -0.011753 0 2650 
373 1 -0.01088 0.00723334 -0.009322 0.000423 0 -0.011753 0 2650 
842 1 -0.010207 0.00753634 -0.009055 0.000116 0 -0.011753 0 2650 
2633 1 -0.005185 0.00748634 -0.009252 4.2e-05 0 -0.011753 0 2650 
2789 1 -0.00281055 0.00782963 -0.0087293 0.000423 0.0877443 0.00246137 -0.0258446 2650 
1717 1 -0.00704415 0.00812375 -0.00908881 0.000116 0.397807 0.269137 0.223069 2650 
949 1 -0.004033 0.00803734 -0.009175 0.000116 0 -0.011753 0 2650 
4077 1 -0.012422 0.00905834 -0.00892 0.000423 0 -0.011753 0 2650 
2649 1 -0.00472 0.00894534 -0.008709 0.000656 0 -0.011753 0 2650 
368 1 -0.013572 0.00953734 -0.008947 0.000423 0 -0.011753 0 2650 
595 1 -0.009604 0.00972634 -0.009278 0.000423 0 -0.011753 0 2650 
4368 1 -0.004474 0.0101183 -0.008808 0.000116 0 -0.011753 0 2650 
3042 1 -0.012085 0.0108133 -0.009039 0.000116 0 -0.011753 0 2650 
2678 1 -0.01021 0.0108123 -0.009104 0.000423 0 -0.011753 0 2650 
2094 1 -0.00644266 0.0117155 -0.00906743 0.000656 0.00162843 -0.0101561 0.00114598 2650 
1021 1 -0.012788 0.0123723 -0.008833 0.000423 0 -0.011753 0 2650 
796 1 -0.00925 0.0123383 -0.009199 0.000423 0 -0.011753 0 2650 
4179 1 -0.00481771 0.0119239 -0.00913457 0.000423 -0.00365698 -0.00657615 -0.0104014 2650 
449 1 -0.002169 0.0125953 -0.008811 0.000656 0 -0.011753 0 2650 
1859 1 -0.011231 0.0131853 -0.009139 4.2e-05 0 -0.011753 0 2650 
232 1 -0.010455 0.0131773 -0.008807 0.000656 0 -0.011753 0 2650 
473 1 -0.006405 0.0135263 -0.009211 0.000423 0 -0.011753 0 2650 