ITEM: TIMESTEP
8487228
ITEM: NUMBER OF ATOMS
4320
ITEM: BOX BOUNDS ff ff ff
-0.15 0.15
-0.15 0.06
-0.15 0.15
ITEM: ATOMS id type x y z radius vx vy vz density 
4132 1 -0.00296419 -0.0508542 -0.0688203 0.000116 0.485142 0.279521 -0.0208958 2650 
2395 1 -0.0114914 -0.062224 -0.0679189 0.000116 7.70989 0.11436 -1.30446 2650 
758 1 -0.00528894 -0.0551069 -0.0686808 0.000116 -2.62422 -0.460914 0.202085 2650 
3005 1 -0.00593292 -0.0544404 -0.068321 0.000423 4.61387 0.478898 -0.400663 2650 
2593 1 -0.0118748 -0.0554927 -0.0678529 0.000116 3.70822 0.191797 -0.64897 2650 
1081 1 -0.0195885 -0.0490667 -0.0660402 0.000116 -0.767126 -0.167716 0.227541 2650 
3974 1 -0.0221307 -0.0584006 -0.064909 0.000423 0.579027 -0.0422042 -0.197419 2650 
3479 1 -0.0216676 -0.0568642 -0.0653878 0.000116 15.2856 0.806025 -5.06522 2650 
2820 1 -0.0239882 -0.0584211 -0.0645724 0.000116 2.02721 0.286926 -0.753094 2650 
4366 1 -0.0295527 -0.0614382 -0.0622227 0.000116 -0.400418 -0.281937 0.190179 2650 
4036 1 -0.0319906 -0.0528271 -0.0610051 0.000116 0.731332 -0.0966293 -0.383504 2650 
1058 1 -0.035991 -0.0578951 -0.0587339 0.000116 0.748711 -0.597716 -0.458795 2650 
1856 1 -0.0371164 -0.0579656 -0.0580293 0.000116 0.320972 0.143322 -0.205298 2650 
3348 1 -0.0426444 -0.0530487 -0.0540969 0.000116 -3.19937 0.122577 2.52205 2650 
3000 1 -0.0440936 -0.0543475 -0.0525233 0.000423 -1.15737 -0.600523 0.971618 2650 
2829 1 -0.0482867 -0.0501722 -0.0491266 0.000116 -0.733857 -1.11361 0.72131 2650 
935 1 -0.0522642 -0.0479546 -0.0444005 0.000423 0.940628 -0.206691 -1.10722 2650 
1290 1 -0.0563028 -0.0471506 -0.0394075 0.000116 -0.683228 -2.30461 -2.83191 2650 
51 1 -0.0570227 -0.0454534 -0.0380966 0.000423 0.466095 -0.0135427 -0.697647 2650 
1471 1 -0.0577596 -0.061601 -0.03697 0.000423 -0.227559 -0.386621 0.355524 2650 
3619 1 -0.0499241 -0.0578264 -0.0356247 4.2e-05 -1.14842 1.1796 -1.34998 2650 
3260 1 -0.0593014 -0.0472429 -0.0350481 0.000116 0.284741 -1.51999 -0.481781 2650 
2201 1 -0.0592243 -0.0552493 -0.0341128 0.000656 1.14523 -0.0325994 -1.98827 2650 
2296 1 -0.0609715 -0.0594318 -0.0320546 0.000116 1.70035 -0.862688 -3.23426 2650 
854 1 -0.0614082 -0.0548377 -0.0312098 0.000116 1.47423 0.79074 -2.9007 2650 
1934 1 -0.0617476 -0.058773 -0.030533 0.000116 1.46931 -0.452297 -2.97142 2650 
3691 1 -0.0591209 -0.0618873 -0.0288322 0.000116 0.468152 -0.0719919 -7.92271 2650 
4139 1 -0.0658432 -0.0561088 -0.0202409 0.000116 0.358825 -0.0707312 -1.16725 2650 
3547 1 -0.0662533 -0.0483262 -0.0177043 0.000423 -0.120575 0.281732 0.451217 2650 
3753 1 -0.0665013 -0.0623609 -0.016802 0.000423 -0.621361 -0.617157 1.59413 2650 
390 1 -0.0668593 -0.0616826 -0.0156103 0.000116 2.07692 0.861 0.0406759 2650 
486 1 -0.0673758 -0.0465301 -0.0127849 0.000423 -0.146756 0.965078 0.773397 2650 
1231 1 -0.0680691 -0.0492219 -0.00833937 0.000423 -0.138399 -0.144169 1.12966 2650 
3038 1 -0.0686943 -0.0604006 -0.00493031 0.000116 0.575965 -2.04143 -1.40727 2650 
3090 1 -0.0683898 -0.0599632 -0.00507028 0.000423 -0.0845658 0.0810939 0.994646 2650 
1816 1 -0.0687249 -0.0591502 -0.00468041 0.000116 0.0287207 0.0241625 -0.421722 2650 
2072 1 -0.0688044 -0.0473566 -0.00331294 0.000116 -0.0305925 -1.39913 0.635358 2650 
3586 1 -0.0682361 -0.0581519 0.00942651 0.000116 -0.297788 0.239809 -2.15561 2650 
239 1 -0.0673338 -0.0589707 0.0130041 0.000423 0.310856 0.256659 1.60957 2650 
843 1 -0.064438 -0.0499534 0.0243467 0.000116 0.193824 0.0360068 0.512991 2650 
1630 1 -0.0643544 -0.0500396 0.0245668 0.000116 0.28122 0.413433 0.736674 2650 
1784 1 -0.0628775 -0.0524116 0.0273745 0.000423 0.412778 -0.214991 0.948125 2650 
1316 1 -0.0614238 -0.0617155 0.0287364 4.2e-05 -2.81277 0.291424 -3.11793 2650 
4376 1 -0.0623669 -0.0611001 0.0294208 4.2e-05 -0.246589 -0.0278851 -0.522726 2650 
800 1 -0.061824 -0.0473504 0.0296775 0.000423 1.29976 -0.85132 2.70765 2650 
2848 1 -0.0617545 -0.0539543 0.0306853 4.2e-05 -3.08132 -0.0806874 -6.2012 2650 
95 1 -0.0611593 -0.0521555 0.0316949 0.000116 -1.14863 -0.124728 -2.21643 2650 
1030 1 -0.0590524 -0.0491431 0.0348678 0.000423 0.643454 -0.149821 1.08976 2650 
2081 1 -0.0589955 -0.0513993 0.0357035 4.2e-05 -7.39171 0.932963 -12.2139 2650 
2 1 -0.0550656 -0.0464507 0.0404842 0.000656 0.93691 0.226325 1.27436 2650 
3891 1 -0.0529379 -0.0512086 0.0435951 0.000423 0.162896 -0.614584 0.197806 2650 
1377 1 -0.052777 -0.0610042 0.0442675 0.000116 -6.01845 0.725118 -7.17538 2650 
2833 1 -0.0521322 -0.0482461 0.045025 0.000116 -1.21131 1.08717 -1.40251 2650 
2711 1 -0.0462817 -0.0470046 0.0510199 0.000116 -0.67779 1.3016 -0.614843 2650 
518 1 -0.0428725 -0.0610074 0.0539164 0.000116 -1.85304 -0.0803491 -1.47348 2650 
3088 1 -0.0368917 -0.0623668 0.0578097 0.000423 -1.68166 -0.122952 -1.06971 2650 
3933 1 -0.0367855 -0.0522248 0.0582396 0.000116 0.73696 0.0452496 0.465482 2650 
3549 1 -0.0352025 -0.0614455 0.0588535 0.000423 -1.09056 0.237602 -0.652151 2650 
856 1 -0.0314551 -0.0609822 0.0595367 0.000116 -6.48266 0.519448 0.777991 2650 
2965 1 -0.0274387 -0.0623846 0.061163 4.2e-05 -6.57058 0.201912 -12.4288 2650 
4025 1 -0.0298401 -0.0467319 0.0620854 0.000116 -1.60424 -0.468159 -0.771047 2650 
2606 1 -0.0242999 -0.0573409 0.0644561 0.000116 -28.3703 0.257769 -10.6955 2650 
578 1 -0.0236054 -0.0508647 0.0643874 0.000423 -2.01686 0.235008 -0.739409 2650 
1185 1 -0.0202089 -0.0585096 0.065853 0.000116 -2.95477 -0.961911 -0.906757 2650 
4345 1 -0.0194597 -0.0538097 0.0660783 0.000116 -0.191695 -2.48873 -0.0564532 2650 
1912 1 -0.0176521 -0.0460641 0.0662673 0.000423 1.63935 0.172033 0.436685 2650 
2451 1 -0.0156264 -0.0557953 0.066774 0.000423 3.03436 0.758243 0.710099 2650 
2210 1 -0.000566871 -0.055661 0.0683439 0.000656 2.88278 0.334143 0.0239109 2650 
3154 1 -0.00663529 -0.0457637 0.0685638 0.000116 -0.884508 0.213614 -0.0855987 2650 
3155 1 -0.000439941 -0.0306675 -0.0688827 0.000116 0.254512 -0.945491 -0.00162552 2650 
3357 1 -0.00424297 -0.0236245 -0.0687533 0.000116 -0.839786 0.0344412 0.0518256 2650 
902 1 -0.00374543 -0.0368144 -0.0684757 0.000423 -1.83393 -0.269565 0.100311 2650 
2098 1 -0.000597685 -0.0342037 -0.0683436 0.000656 -2.62758 0.0517086 0.0229789 2650 
1593 1 -0.000758408 -0.0295706 -0.0685739 0.000423 -2.57381 0.352152 0.0284656 2650 
1239 1 -0.00695373 -0.0280767 -0.0682246 0.000423 2.18065 0.229734 -0.222261 2650 
577 1 -0.00383119 -0.027087 -0.068471 0.000423 -2.7522 0.343 0.153995 2650 
1218 1 -0.00315971 -0.0239163 -0.0682731 0.000656 -2.29101 -0.311711 0.106029 2650 
2116 1 -0.00557411 -0.0177711 -0.0683512 0.000423 -3.23141 -0.569164 0.263525 2650 
3947 1 -0.00605106 -0.0154005 -0.0680778 0.000656 -2.79869 -0.0435568 0.24876 2650 
2019 1 -0.00754831 -0.014855 -0.0681614 0.000423 -2.81459 -0.0770218 0.311692 2650 
1296 1 -0.00948669 -0.0130539 -0.0682277 0.000116 -1.32351 -0.332017 0.184026 2650 
1606 1 -0.00895872 -0.010333 -0.0682991 0.000116 -2.84962 0.737629 0.373782 2650 
3649 1 -0.00420538 -0.000507314 -0.068449 0.000423 -2.07142 -0.018699 0.127264 2650 
2803 1 -0.0131593 -0.0327188 -0.0675551 0.000116 1.23744 -2.41236 -0.208752 2650 
3633 1 -0.0138365 -0.0316643 -0.0671677 0.000423 -2.55368 0.289386 0.52671 2650 
3219 1 -0.0120633 -0.0206055 -0.0675087 0.000423 -1.93739 0.316148 0.347011 2650 
1107 1 -0.0108706 -0.0204468 -0.0674762 0.000656 -1.74305 -0.00541874 0.280777 2650 
3013 1 -0.0110228 -0.017893 -0.0676864 0.000423 -3.14952 -0.651071 0.512902 2650 
1320 1 -0.0142079 -0.0154924 -0.0674785 4.2e-05 5.81974 -1.39008 -1.22537 2650 
817 1 -0.00972284 -0.0137507 -0.0678853 0.000423 -1.38631 -0.339619 0.198553 2650 
443 1 -0.0112293 -0.0113613 -0.0674175 0.000656 -2.85606 -0.126683 0.475713 2650 
2246 1 -0.0133937 -0.00584204 -0.0672574 0.000423 -1.48441 -0.115334 0.295608 2650 
596 1 -0.0145506 -0.0192268 -0.0670167 0.000423 -3.14384 -0.363816 0.682585 2650 
1135 1 -0.0173845 -0.00859571 -0.066338 0.000423 -1.49764 0.159614 0.392471 2650 
419 1 -0.0161256 -0.00770304 -0.0669701 0.000116 -2.94541 -0.121735 0.709218 2650 
1055 1 -0.0162275 -0.00632643 -0.0669454 0.000116 -1.83305 -0.0471582 0.444328 2650 
1461 1 -0.0167879 -0.00579777 -0.0664915 0.000423 -1.88273 0.498218 0.475355 2650 
3426 1 -0.0195618 -0.0279518 -0.0657289 0.000423 0.210535 0.566599 -0.0626586 2650 
3096 1 -0.0190116 -0.022525 -0.0658901 0.000423 -1.30346 -0.440681 0.376093 2650 
1987 1 -0.0189201 -0.0200526 -0.065687 0.000656 -0.674771 0.0580986 0.612606 2650 
82 1 -0.0199407 -0.0124258 -0.0659347 0.000116 -1.73692 0.144927 0.525298 2650 
163 1 -0.0189631 -0.0103969 -0.0659041 0.000423 -1.68452 0.441913 0.484702 2650 
3140 1 -0.0234855 -0.039178 -0.0647569 0.000116 -1.26597 -0.198247 0.459133 2650 
3729 1 -0.0196922 -0.0332409 -0.0654479 0.000656 -2.17026 0.246312 0.652997 2650 
3514 1 -0.0210154 -0.0259168 -0.065035 0.000656 -0.693334 0.131984 0.224044 2650 
1751 1 -0.0225078 -0.000677912 -0.0651814 4.2e-05 -2.47762 -0.084298 0.855545 2650 
3399 1 -0.0247808 -0.0373067 -0.0642872 4.2e-05 -1.52717 0.668168 0.570259 2650 
2574 1 -0.0245099 -0.0310886 -0.0640485 0.000423 -1.80983 -0.129049 0.692582 2650 
3692 1 -0.0255075 -0.0221045 -0.0639874 0.000116 -1.27351 0.0506639 0.507663 2650 
2238 1 -0.0234736 -0.0081695 -0.0644355 0.000423 -1.13927 0.597829 0.415031 2650 
1076 1 -0.025549 -0.00736643 -0.0639709 0.000116 -2.97533 -0.16582 1.1883 2650 
631 1 -0.0245967 -0.00740868 -0.064343 0.000116 -2.9812 -0.174578 1.13963 2650 
21 1 -0.0229335 -0.0057141 -0.0646297 0.000423 -1.38578 0.488291 0.491736 2650 
3084 1 -0.0244519 -0.0325783 -0.0638225 0.000656 -2.0766 -0.270234 0.795598 2650 
3079 1 -0.0257496 -0.0317554 -0.0633101 0.000656 -2.08715 -0.0413087 0.848888 2650 
3089 1 -0.0257539 -0.016701 -0.0635586 0.000423 -2.56941 -0.279604 1.04112 2650 
1202 1 -0.0274883 -0.00117307 -0.0632424 4.2e-05 -0.644701 -1.55432 0.280219 2650 
3978 1 -0.0280378 -0.0344351 -0.0625846 0.000423 -1.90501 0.0132279 0.853438 2650 
1323 1 -0.0291597 -0.0201022 -0.0618135 0.000656 0.575067 -0.178358 -0.272581 2650 
2527 1 -0.0308689 -0.0127874 -0.061663 4.2e-05 7.02343 -1.19751 -3.51598 2650 
3385 1 -0.0309714 -0.0368699 -0.0615288 0.000116 2.07328 -0.966575 -1.04361 2650 
2183 1 -0.0320374 -0.0251845 -0.0609805 0.000116 -1.79173 -0.398025 0.941325 2650 
2460 1 -0.0317217 -0.0242355 -0.0608004 0.000423 -1.49203 -0.381238 0.778447 2650 
2117 1 -0.0312755 -0.00437609 -0.0610311 0.000423 -2.54007 0.107005 1.30166 2650 
1170 1 -0.0324627 -0.0253637 -0.0607552 0.000116 -0.453245 -0.71105 0.242178 2650 
2282 1 -0.0330535 -0.0147776 -0.0604358 0.000116 -2.79369 -0.250971 1.52792 2650 
203 1 -0.0318931 -0.00490265 -0.0602167 0.000116 -1.21549 -0.102925 4.068 2650 
306 1 -0.031016 -0.000244865 -0.0599903 0.000116 0.801995 -0.0859639 -0.656781 2650 
186 1 -0.0112062 -0.00434876 -0.0590286 0.000116 -1.72441 -0.118694 -9.01159 2650 
3887 1 -0.0370521 -0.0408625 -0.057707 0.000423 -1.71604 -0.214633 1.10182 2650 
681 1 -0.0360931 -0.0373147 -0.0583115 0.000423 -1.71052 0.151105 1.05876 2650 
3069 1 -0.0388125 -0.0192124 -0.0569983 4.2e-05 -0.85521 -0.540529 0.582348 2650 
295 1 -0.0387735 -0.0176778 -0.0569354 0.000116 0.166898 2.53049 -0.113659 2650 
433 1 -0.0390354 -0.0107269 -0.0568458 4.2e-05 -2.58672 -0.120709 1.77628 2650 
1378 1 -0.0397196 -0.011297 -0.0562795 0.000116 -2.61776 -0.181689 1.8475 2650 
3314 1 -0.0389792 -0.00693345 -0.0564231 0.000423 -0.879306 1.12844 0.607458 2650 
42 1 -0.0409231 -0.0147755 -0.0550296 0.000423 3.38721 0.87023 -2.51892 2650 
114 1 -0.0421375 -0.00331755 -0.0538111 0.000656 -2.17803 -0.16793 1.70553 2650 
1690 1 -0.0430182 -0.0260242 -0.0534078 0.000423 -2.44814 -1.09047 1.97188 2650 
29 1 -0.0445249 -0.0319199 -0.0521582 0.000423 -0.860456 1.07215 0.734529 2650 
50 1 -0.0438659 -0.0206613 -0.0525254 0.000423 0.73501 0.00808929 -0.724937 2650 
3540 1 -0.0426427 -0.0191761 -0.0521593 0.000423 5.27857 1.45042 -4.43589 2650 
107 1 -0.045763 -0.0104922 -0.0515845 4.2e-05 -2.26761 0.508456 2.0117 2650 
4342 1 -0.045472 -0.00864966 -0.0517428 0.000116 -1.99057 0.284699 1.74933 2650 
2232 1 -0.0456331 -0.0400137 -0.0511915 0.000423 -0.877755 0.160685 0.782449 2650 
2014 1 -0.0469001 -0.0134049 -0.0500333 0.000423 -2.20272 0.195939 2.06478 2650 
3378 1 -0.0489307 -0.0112808 -0.0484851 0.000116 -0.829493 0.294328 0.837116 2650 
2234 1 -0.0493142 -0.0369259 -0.0476556 0.000423 -1.49658 0.0351126 1.54867 2650 
940 1 -0.0494568 -0.0188417 -0.0479484 0.000116 -2.48028 -0.596668 2.55831 2650 
1640 1 -0.0502276 -0.0046105 -0.0472483 4.2e-05 -0.884498 0.188438 0.940271 2650 
4037 1 -0.0500463 -0.00250669 -0.0473328 0.000116 -2.10782 -0.0712403 2.22865 2650 
1914 1 -0.0506318 -0.0260172 -0.0462533 0.000423 -0.166232 -0.00900714 0.181967 2650 
1312 1 -0.046518 -0.00273156 -0.0464046 4.2e-05 2.26629 -1.43916 -2.87351 2650 
4210 1 -0.0511814 -0.0274443 -0.0456444 0.000423 0.0817086 -0.93284 -0.0916211 2650 
322 1 -0.0526894 -0.0287965 -0.0444864 4.2e-05 1.86203 -0.829775 -2.20538 2650 
2768 1 -0.0523218 -0.00793595 -0.0443326 0.000423 -1.09891 -0.234775 1.29694 2650 
4068 1 -0.0526022 -0.0274595 -0.0439995 0.000423 -0.935119 -0.234469 1.11795 2650 
2038 1 -0.0531492 -0.0166114 -0.0438199 0.000116 -1.6004 -0.432705 1.94113 2650 
3671 1 -0.0540865 -0.00170235 -0.0421616 0.000423 -1.11992 0.336655 1.43668 2650 
3393 1 -0.0210866 -0.00735093 -0.0417852 4.2e-05 -3.12938 -0.350649 -6.37011 2650 
892 1 -0.0546762 -0.00454184 -0.0410088 0.000656 -1.11018 -0.112458 1.48019 2650 
2002 1 -0.0551663 -0.00181429 -0.0407385 0.000423 -1.18184 -0.0513761 1.6004 2650 
1964 1 -0.0562215 -0.00236175 -0.0398015 0.000116 -1.1391 0.0273384 1.60903 2650 
2242 1 -0.0557144 -0.000579389 -0.0399857 0.000423 -1.16417 0.06514 1.6221 2650 
4016 1 -0.0568051 -0.0412442 -0.0389835 0.000116 -0.048626 0.898766 -0.270315 2650 
3198 1 -0.0561898 -0.033449 -0.0393148 0.000423 -0.133946 0.271249 0.191439 2650 
1111 1 -0.0565656 -0.040496 -0.0383606 0.000656 -1.27341 0.369417 1.87774 2650 
2245 1 -0.0580896 -0.0214026 -0.0364493 0.000423 -1.73365 0.220648 2.76293 2650 
2996 1 -0.0582876 -0.0122254 -0.0361319 0.000423 -1.32715 0.133244 2.14094 2650 
2821 1 -0.0592549 -0.038691 -0.0351266 0.000116 0.0992323 -0.787113 -0.167395 2650 
4098 1 -0.0590974 -0.0303084 -0.0347915 0.000423 -0.705269 -0.310821 1.19798 2650 
228 1 -0.0592079 -0.00761536 -0.0341414 0.000656 -1.26725 0.215816 2.19766 2650 
3785 1 -0.0600985 -0.0429863 -0.0336629 0.000116 2.09859 1.565 -3.74662 2650 
3229 1 -0.0597766 -0.0149106 -0.0336111 0.000423 -0.287572 1.22129 0.511441 2650 
693 1 -0.0602373 -0.0303471 -0.0327784 0.000423 1.78428 2.10853 -3.279 2650 
1723 1 -0.0607079 -0.0113771 -0.0325511 0.000116 -1.23861 -0.430463 2.31001 2650 
3779 1 -0.0604406 -0.00989064 -0.0324019 0.000423 -1.19431 -0.188569 2.2278 2650 
417 1 -0.0614794 -0.00395229 -0.0310693 0.000116 -1.45718 -0.00307449 2.88344 2650 
1196 1 -0.0616265 -0.0311228 -0.0307766 0.000116 -0.537197 -0.557202 1.07567 2650 
1792 1 -0.0614281 -0.0156503 -0.0304884 0.000423 -1.14084 -0.169114 2.29857 2650 
1042 1 -0.0618451 -0.016189 -0.0296332 0.000423 -0.751893 0.551602 1.56922 2650 
38 1 -0.0617189 -0.0133343 -0.0298952 0.000423 -1.02036 -0.291529 2.10655 2650 
2062 1 -0.0623863 -0.00615493 -0.0292057 0.000116 -1.36318 -0.147674 2.9119 2650 
2765 1 -0.0624375 -0.0280844 -0.0283638 0.000423 -0.59405 0.567633 1.30769 2650 
197 1 -0.0633247 -0.0173611 -0.0269352 0.000116 2.24322 1.2418 -2.49397 2650 
1177 1 -0.0631553 -0.0138148 -0.0275033 0.000116 -1.10079 -0.633856 2.52773 2650 
338 1 -0.0629767 -0.0222426 -0.0265545 0.000656 -0.854292 0.091569 2.02604 2650 
2132 1 -0.0632919 -0.0175463 -0.026394 0.000423 0.832608 -0.00634484 -2.04573 2650 
3261 1 -0.064015 -0.0029625 -0.0254381 0.000116 -0.373895 -0.116408 0.940908 2650 
2898 1 -0.0639369 -0.0183636 -0.0247997 0.000423 -0.217067 0.113519 0.559628 2650 
2480 1 -0.064709 -0.0278134 -0.0236172 0.000116 -0.244464 0.827529 0.669807 2650 
3602 1 -0.0646953 -0.00174452 -0.0236547 0.000116 -0.747715 -0.0878404 2.04499 2650 
4293 1 -0.064593 -0.00194266 -0.0230367 0.000423 -0.466028 0.393345 1.3067 2650 
208 1 -0.0652366 -0.0334468 -0.022118 0.000116 0.246258 1.78478 -0.726334 2650 
2685 1 -0.0647939 -0.013648 -0.0224654 0.000423 -0.366301 0.544152 1.05647 2650 
615 1 -0.0652384 -0.00374159 -0.0221129 0.000116 -0.466426 0.0981879 1.37607 2650 
3054 1 -0.0653211 -0.0379667 -0.0218671 0.000116 -0.247422 -1.07322 0.739095 2650 
4069 1 -0.0652788 -0.00969237 -0.021015 0.000423 -0.674492 0.130278 2.09518 2650 
1994 1 -0.0654506 -0.0235886 -0.0204737 0.000423 -0.786304 0.509727 2.51366 2650 
2192 1 -0.065919 -0.0186619 -0.0202459 4.2e-05 -0.725808 -0.569577 2.36317 2650 
3626 1 -0.0652682 -0.01268 -0.02028 0.000656 -0.963851 -0.43841 3.10202 2650 
2827 1 -0.00906419 -0.00366058 -0.0199489 0.000116 -1.02942 -0.0794007 -2.26133 2650 
287 1 -0.0662789 -0.000737327 -0.018765 0.000116 -0.533228 0.0411197 1.88339 2650 
897 1 -0.0663839 -0.0264084 -0.0172082 0.000423 -0.250357 0.593114 0.965804 2650 
2291 1 -0.066684 -0.0152387 -0.0172702 0.000116 -0.732198 -0.13665 2.82717 2650 
3470 1 -0.0668512 -0.00236333 -0.0166115 0.000116 0.0816898 -0.184779 -0.328752 2650 
606 1 -0.000183 0.00215269 -0.016592 0.000116 0 -0.011753 0 2650 
2520 1 -0.000358958 0.00483599 -0.016621 4.2e-05 -0.0125271 0.0201098 0.013978 2650 
2172 1 -0.00291253 -0.00136767 -0.0163721 0.000116 0.0682862 0.00746542 -0.00852403 2650 
30 1 -0.00115733 -0.000626151 -0.0160483 0.000423 -0.0136125 -0.0214967 0.00834717 2650 
2013 1 -0.00288681 0.00293728 -0.015982 0.000423 -0.00154235 0.00221798 0.00156406 2650 
2301 1 -0.004222 0.00392569 -0.016305 4.2e-05 0 -0.011753 0 2650 
1679 1 -0.00393372 0.00377511 -0.0159609 0.000423 -0.00453729 0.0157155 0.00260015 2650 
2283 1 -0.00352199 0.00379397 -0.0164373 0.000116 -0.00010552 0.00956354 0.000789399 2650 
3121 1 -0.000698982 0.00517257 -0.0161979 0.000423 0.0292552 0.00121421 5.81941e-05 2650 
978 1 -0.00350732 0.00652096 -0.0163063 0.000116 0.0180122 -0.00353228 -0.00159853 2650 
3934 1 -0.001977 0.00691469 -0.016218 0.000116 0 -0.011753 0 2650 
3177 1 -0.000401219 0.00868984 -0.0158962 4.2e-05 0.00917698 -0.00185525 -0.00666376 2650 
1483 1 -0.000396926 0.00963675 -0.0159642 0.000423 -0.00134867 0.0112238 -0.0085204 2650 
3007 1 -0.0024458 0.0109765 -0.016296 0.000423 -0.00351627 -0.00337698 0.014455 2650 
3500 1 -0.00162179 0.0107768 -0.0159011 4.2e-05 -0.0454796 -0.00333034 0.0313479 2650 
371 1 -0.000536059 0.0105063 -0.0158809 0.000423 -0.00202239 0.0122439 -0.00806147 2650 
188 1 -0.00197411 0.0117178 -0.0164632 0.000116 -0.0148612 0.0228045 0.00418427 2650 
3644 1 -0.00115341 0.0128963 -0.015882 0.000423 -0.000399523 0.00418678 0.0157329 2650 
2713 1 -0.000732678 0.0130219 -0.01633 0.000116 0.00037122 0.035974 0.00535071 2650 
2924 1 -0.00510743 0.0141168 -0.015967 0.000116 -0.059039 0.0353164 0.00422158 2650 
2179 1 -0.00367375 0.0227932 -0.0163165 0.000116 -0.892132 -0.193779 0.155833 2650 
4010 1 -0.00494356 0.0390894 -0.0158704 0.000116 -0.0944465 0.099748 0.0197066 2650 
437 1 -0.0671726 -0.00160808 -0.0155901 4.2e-05 0.114263 1.55594 -0.492324 2650 
509 1 -0.00745434 -0.000204425 -0.0150792 0.000116 -0.00480979 -0.0076817 0.0108723 2650 
736 1 -0.00616048 -0.000391931 -0.0153309 0.000116 -0.0307431 -0.0170391 0.0144389 2650 
2399 1 -0.002418 0.00236669 -0.015541 0.000116 0 -0.011753 0 2650 
3637 1 -0.00477729 0.00326923 -0.0156266 0.000423 -0.0121297 0.0118194 -0.00377228 2650 
4227 1 -0.000550536 0.00523816 -0.0150232 0.000116 0.00143204 -0.0228975 -0.0290312 2650 
2438 1 -0.00585969 0.00726975 -0.0150542 0.000423 -0.00468347 -0.000292455 -0.00123863 2650 
3830 1 -0.006879 0.00846669 -0.015411 4.2e-05 0 -0.011753 0 2650 
1204 1 -0.00516399 0.00800186 -0.0150885 4.2e-05 -0.244761 -0.0524989 -0.393231 2650 
233 1 -0.00421257 0.00917469 -0.0152261 0.000423 0.0114684 -0.00558491 0.0116559 2650 
289 1 -0.00288145 0.00971137 -0.0157684 0.000116 -0.00850769 0.000708308 0.0302001 2650 
2969 1 -0.00208385 0.00972553 -0.0150948 0.000656 -0.00775713 0.0181674 -1.8219e-05 2650 
938 1 -0.00143376 0.00988725 -0.0155282 0.000116 -0.00119823 0.000558801 -0.00633771 2650 
2793 1 -0.00075371 0.0095658 -0.0151679 0.000423 0.0113251 0.0911454 -0.00570485 2650 
1839 1 -0.00154943 0.0146099 -0.0151657 0.000116 -0.0676852 0.0211351 0.0188737 2650 
2585 1 -7.21525e-05 0.0214859 -0.015547 0.000116 -0.0221426 0.0759057 0.0070692 2650 
148 1 -0.00483682 0.0324431 -0.0157831 0.000423 -0.145516 -0.155086 0.0592808 2650 
3279 1 -0.0011646 0.0453212 -0.0154205 0.000116 0.0698602 -0.118112 -0.0910458 2650 
945 1 -0.0062371 0.0493055 -0.0154126 0.000116 -0.192436 -0.107086 0.0844573 2650 
2102 1 -0.066785 -0.0246288 -0.0145248 0.000656 -0.512334 0.0872326 2.35571 2650 
269 1 -0.000470672 -0.00327033 -0.0144134 0.000423 -0.0067037 -0.0325502 -0.00931701 2650 
2666 1 -0.00580042 -0.00251879 -0.0143005 0.000423 0.0429038 -0.00888448 0.00629481 2650 
1053 1 -0.007469 -0.00147531 -0.014946 0.000116 0 -0.011753 0 2650 
1991 1 -0.00688912 0.000343606 -0.0144943 0.000656 -0.019376 -0.00203791 0.00870126 2650 
3239 1 -0.00559949 0.00132435 -0.0146451 0.000116 -0.0248133 -0.00752354 0.0120924 2650 
857 1 -0.00249888 0.00183914 -0.0149492 0.000116 -0.0623021 0.0193526 0.00200378 2650 
220 1 -0.00346357 0.00315731 -0.0142659 4.2e-05 0.00197382 0.00663681 0.00671825 2650 
1388 1 -0.00430842 0.00539545 -0.0145039 0.000116 -0.039288 0.0021603 0.0169103 2650 
3365 1 -0.002315 0.00479269 -0.014552 0.000116 0 -0.011753 0 2650 
1611 1 -0.00475202 0.00557064 -0.0145619 0.000116 0.0134772 -0.0209987 -0.0751807 2650 
2313 1 -0.00385199 0.00784373 -0.0142373 0.000656 0.0121795 0.0249345 0.010824 2650 
581 1 -0.00563495 0.00802243 -0.0145876 0.000423 0.000441693 0.00100922 0.00165067 2650 
2092 1 -0.00665197 0.00912921 -0.0147499 0.000656 -0.00167296 0.00263094 0.0238503 2650 
86 1 -0.00345117 0.00989522 -0.0149985 0.000116 -0.0196067 0.0126222 0.000798653 2650 
1617 1 -0.000934852 0.0100782 -0.0149449 0.000116 0.0304013 0.00375314 0.0183235 2650 
3669 1 -2.94013e-05 0.010105 -0.0148677 0.000423 0.00311727 -0.00583333 -0.00141597 2650 
2182 1 -0.000627729 0.010849 -0.0143779 0.000116 -0.0273815 0.022445 -0.0411396 2650 
1228 1 -0.00166121 0.0113265 -0.0149686 0.000423 -0.0026547 0.0243513 0.000515369 2650 
4231 1 -0.00120234 0.0178843 -0.0146279 0.000116 -0.0134934 0.0153003 0.0304581 2650 
2021 1 -0.00590889 0.0544834 -0.0149853 0.000423 0.132959 -0.0939981 -0.0898992 2650 
1206 1 -0.0675644 -0.0183476 -0.0137935 4.2e-05 -0.736301 -1.08368 3.60661 2650 
807 1 -0.0671775 -0.0165093 -0.0137892 0.000423 -0.494927 -0.342784 2.41116 2650 
2007 1 -0.0671639 -0.014397 -0.0138549 0.000423 -0.465026 0.265446 2.25429 2650 
2530 1 -0.00971826 -0.00535729 -0.0135251 0.000656 -0.516818 -0.549147 -0.61249 2650 
2911 1 -0.0671645 -0.00059704 -0.0138523 0.000423 -0.512768 -0.0477319 2.48621 2650 
623 1 -0.00760949 -0.000182322 -0.0134246 0.000116 -0.0192086 -0.00896372 0.0230222 2650 
2332 1 -0.00527862 -0.000520832 -0.0136252 0.000423 -0.0114447 -0.00779769 0.00753018 2650 
2922 1 -0.00737806 0.00138441 -0.0138541 0.000116 -0.00925852 -0.000802711 0.00675368 2650 
676 1 -0.00452289 0.00232502 -0.013434 0.000423 -0.0128147 0.00889048 0.0204924 2650 
2512 1 -0.00793225 0.00271111 -0.0134748 0.000116 0.018779 -0.0192413 0.00230208 2650 
150 1 -0.00793266 0.00303773 -0.0141615 0.000423 -0.0542472 0.016714 0.0257745 2650 
3587 1 -0.00832516 0.00356662 -0.0138007 0.000116 -0.0579635 0.0255056 0.0285778 2650 
1032 1 -0.00579568 0.0032012 -0.0134416 0.000423 0.0299121 -0.00820922 0.0127278 2650 
1684 1 -0.000127724 0.00324901 -0.0137602 0.000423 -0.00348729 -0.0115683 0.00145358 2650 
2913 1 -0.00897178 0.00483245 -0.0137515 0.000116 -0.0140945 -0.0228944 -0.00540615 2650 
1192 1 -0.00656557 0.00516654 -0.0140115 0.000116 -0.0160738 0.0171838 -0.0228619 2650 
2344 1 -0.000429832 0.00528682 -0.0140991 0.000423 0.00575909 -0.0231993 -0.0217047 2650 
2322 1 -0.00897298 0.00619117 -0.0135094 0.000656 -0.00299145 -0.013582 0.00409796 2650 
2918 1 -0.00723975 0.00622129 -0.0138986 0.000116 0.0149777 0.0131491 0.0124233 2650 
1288 1 -0.002467 0.00609569 -0.014044 0.000116 0 -0.011753 0 2650 
3515 1 -0.00806298 0.00702356 -0.0139581 0.000656 -0.00927244 -0.00874495 -0.000839897 2650 
963 1 -0.00705453 0.00707343 -0.0139623 0.000116 0.00350227 -0.00324664 0.0156587 2650 
1618 1 -0.00996183 0.00746247 -0.0135442 0.000116 0.0059414 0.00192455 -0.00369393 2650 
1250 1 -0.00858109 0.007868 -0.013434 0.000423 -0.00730125 -0.00574558 -0.000431452 2650 
4257 1 -0.00794865 0.00787132 -0.0135175 0.000116 -0.00578911 -0.00907208 0.00958653 2650 
2222 1 -0.000751544 0.00770527 -0.0137295 0.000423 0.00109584 0.00172293 0.0219135 2650 
1769 1 -0.00757597 0.00855213 -0.0140091 0.000656 -0.0177486 -0.00836892 0.0021466 2650 
1237 1 -0.00932784 0.00901585 -0.0134865 0.000423 0.00205875 0.0105454 -1.45263e-05 2650 
4190 1 -0.00861667 0.00885353 -0.0140389 0.000423 -0.0108251 0.00653221 0.00770144 2650 
1476 1 -0.0072445 0.0099083 -0.0134361 0.000423 -0.00473027 0.00118609 -0.000138689 2650 
1827 1 -0.00653006 0.0100444 -0.0137621 0.000116 0.0445821 -0.0304485 -0.00868089 2650 
1409 1 -0.00044 0.00987569 -0.013868 0.000116 0 -0.011753 0 2650 
70 1 -0.00666173 0.0106185 -0.0140233 0.000116 0.0420474 0.0335815 -0.0676972 2650 
2781 1 -0.00600886 0.0104321 -0.0140194 0.000423 -0.00287998 0.011096 -0.0317373 2650 
3150 1 -0.000753439 0.0107997 -0.0137395 0.000116 -0.0182263 -0.0087302 -0.0269448 2650 
3163 1 -0.00782907 0.0123672 -0.0137339 0.000116 -0.0370466 0.0283549 -0.0433006 2650 
2466 1 -0.00758895 0.0199638 -0.0141813 0.000423 0.048327 0.0396991 -0.0547289 2650 
2497 1 -0.0100564 0.0220948 -0.0135572 0.000116 0.231916 0.119576 -0.203137 2650 
1195 1 -0.0075481 0.0287476 -0.0138458 0.000116 0.0557766 0.0782116 -0.0138054 2650 
4234 1 -0.0041501 0.0294025 -0.0137699 0.000116 -0.0277623 0.0670651 -0.0707711 2650 
2084 1 -0.00969078 0.031513 -0.0138982 4.2e-05 0.264644 0.101196 -0.228625 2650 
2643 1 -0.00650467 0.0311699 -0.0136393 0.000656 -0.0823633 0.0688822 0.0201377 2650 
1124 1 -0.00304366 0.03612 -0.0136996 0.000423 0.115227 0.0704534 -0.0460588 2650 
3622 1 -0.0670518 -0.015294 -0.0132383 0.000656 -0.41452 0.123097 2.09953 2650 
160 1 -0.0673776 -0.00860337 -0.0127753 0.000423 -0.505055 0.140691 2.66368 2650 
4097 1 -0.00760262 -0.00312964 -0.0131429 0.000423 0.0222564 -0.0142204 -0.0225559 2650 
3576 1 -0.00511709 -0.00148246 -0.0129752 0.000116 0.0561059 0.00120064 -0.0311085 2650 
3599 1 -0.00168409 -0.0012243 -0.0133925 0.000116 0.00758272 -0.00512374 -0.0536854 2650 
3191 1 -0.00881104 -0.000364255 -0.0127282 0.000656 -0.0183475 -0.00795438 -0.00635009 2650 
2525 1 -0.004063 0.000322686 -0.013231 4.2e-05 0 -0.011753 0 2650 
4126 1 -0.00701175 0.000853101 -0.0129189 0.000116 -0.0261531 0.0084042 0.00402279 2650 
2619 1 -0.00594042 0.00108259 -0.0128196 0.000116 -0.0137973 -0.0204082 0.00531131 2650 
4165 1 -0.005215 0.00134072 -0.0130144 0.000656 -0.00295906 -0.0330191 0.0101422 2650 
3880 1 -0.0103228 0.00209071 -0.0129206 0.000423 -0.0020648 -0.00583391 0.00454369 2650 
2609 1 -0.00886 0.00186269 -0.013248 0.000116 0 -0.011753 0 2650 
3917 1 -0.003984 0.00262369 -0.012703 0.000116 0 -0.011753 0 2650 
2059 1 -0.003583 0.00283269 -0.012756 0.000116 0 -0.011753 0 2650 
2474 1 -0.00210387 0.00303323 -0.0129173 0.000423 0.0307748 -0.0136667 -0.043701 2650 
3316 1 -0.00939386 0.00326526 -0.0130448 0.000423 -0.00544519 -0.0183171 -0.00879554 2650 
1171 1 -0.00758065 0.00325926 -0.0130525 0.000116 0.0131753 -0.0110464 0.0150896 2650 
4300 1 -0.000832504 0.00340913 -0.013148 0.000423 0.0464595 0.0171624 -0.0680193 2650 
3787 1 -0.00665048 0.00415025 -0.0129885 0.000116 -0.0024271 -0.00223267 -0.0195234 2650 
3446 1 -0.00123296 0.00433375 -0.0129238 0.000423 0.014297 -0.016402 -0.00312272 2650 
1427 1 -0.002948 0.00516369 -0.013376 4.2e-05 0 -0.011753 0 2650 
3362 1 -0.00263076 0.00486558 -0.0126744 0.000116 0.000350619 -0.00253681 -0.00404217 2650 
2912 1 -0.00545798 0.0060652 -0.0131435 0.000116 0.00196064 0.0151142 0.00117299 2650 
445 1 -0.0100258 0.00706167 -0.0128507 0.000656 -0.00148386 -0.000427463 0.00552151 2650 
3259 1 -0.00886814 0.00672859 -0.0127328 0.000116 0.00136236 -0.0113258 0.00321419 2650 
4179 1 -0.00786569 0.00678006 -0.012907 0.000423 -0.0070231 -0.0226882 -0.00131956 2650 
1795 1 -0.00898189 0.00744492 -0.0127514 0.000423 -0.00333027 -0.00705618 0.0037936 2650 
3364 1 -0.00663898 0.00721278 -0.0128572 0.000116 -0.00179506 0.0163753 -0.0232219 2650 
2483 1 -0.00726569 0.00843802 -0.0129918 0.000116 0.0222317 -0.00887276 -0.000700143 2650 
205 1 -0.000738969 0.00793218 -0.0132217 0.000116 0.00114706 0.000219934 0.0269812 2650 
3847 1 -0.00944464 0.00996431 -0.0129552 0.000656 0.00218348 0.0145646 -0.00497691 2650 
2453 1 -0.00619862 0.0101393 -0.0130845 0.000423 0.00287214 0.0261989 -0.0126472 2650 
1775 1 -0.00823946 0.0106813 -0.0130874 0.000423 -0.000575409 -0.0115316 -0.00160845 2650 
3471 1 -0.00797606 0.0113544 -0.012729 0.000116 0.00654915 0.0415659 -0.0136084 2650 
3838 1 -0.00565367 0.0117329 -0.0129277 0.000656 0.0059045 0.0308137 -0.0288407 2650 
1986 1 -0.00227882 0.0110856 -0.0128056 0.000656 0.00762539 0.0149956 0.0116892 2650 
1802 1 -0.0036569 0.0124235 -0.0131291 0.000423 0.00500259 -0.000364755 -0.0111755 2650 
949 1 -0.00812082 0.0135271 -0.0132954 0.000116 -0.0176518 0.0277962 -0.00593252 2650 
478 1 -0.00628243 0.0151763 -0.0131402 0.000423 0.0184535 0.00116934 0.020279 2650 
1143 1 -0.000151542 0.0155144 -0.0131077 0.000423 0.0070315 0.0110531 -0.00616027 2650 
1717 1 -0.00283613 0.0251997 -0.0132667 0.000116 -0.014717 0.0706098 -0.0348682 2650 
352 1 -0.00129669 0.0323163 -0.012799 0.000423 0.0736471 -0.159457 0.0441779 2650 
2863 1 -0.00492287 0.0473757 -0.0129185 0.000656 0.0278245 0.133951 -0.121512 2650 
3015 1 -0.0674093 -0.02513 -0.0126071 0.000423 -0.451841 0.176252 2.41596 2650 
4331 1 -0.067771 -0.0169911 -0.0123334 0.000116 -0.446077 -1.59406 2.45116 2650 
1763 1 -0.001143 -0.00299131 -0.012442 0.000656 0 -0.011753 0 2650 