ITEM: TIMESTEP
3368976
ITEM: NUMBER OF ATOMS
4375
ITEM: BOX BOUNDS ff ff ff
-0.15 0.15
-0.15 0.06
-0.15 0.15
ITEM: ATOMS id type x y z radius vx vy vz density 
1462 1 -0.00414542 -0.0555169 -0.0684526 0.000423 -1.90186 0.235996 0.115174 2650 
3957 1 -0.0114929 -0.0474083 -0.067373 0.000656 -3.11296 -0.883067 0.531027 2650 
3683 1 -0.0198587 -0.0528591 -0.0659595 0.000116 0.0825184 -0.756137 -0.0248442 2650 
1060 1 -0.0284067 -0.0483189 -0.0627541 0.000116 1.51712 -0.769652 -0.68675 2650 
3946 1 -0.0397661 -0.0506944 -0.0563371 4.2e-05 7.2809 -1.13606 -5.13929 2650 
4019 1 -0.0431928 -0.0598934 -0.0536601 0.000116 5.80864 -1.58745 -4.67556 2650 
3440 1 -0.0465248 -0.0597247 -0.0503825 0.000423 -2.00853 -0.0542617 1.85474 2650 
483 1 -0.0520633 -0.047213 -0.0446359 0.000423 -1.28649 -0.151877 1.50056 2650 
734 1 -0.0574992 -0.0603971 -0.0379323 0.000116 1.65953 -0.894688 -2.51558 2650 
1068 1 -0.0656244 -0.0579932 -0.0209394 0.000116 -0.989128 -0.867275 3.09994 2650 
3156 1 -0.0666895 -0.0469133 -0.0172492 0.000116 0.484983 -0.644555 -1.87507 2650 
1132 1 -0.0681727 -0.0616709 -0.00744526 0.000423 -0.279746 0.217869 2.56151 2650 
1943 1 -0.0677271 -0.061334 -0.00699476 0.000116 -0.968108 0.331086 1.33208 2650 
3143 1 -0.06878 -0.0472764 0.00378609 0.000116 -0.183346 -0.833191 -3.33075 2650 
3831 1 -0.0687818 -0.0497163 0.00492715 4.2e-05 -1.50249 4.03689 -20.9744 2650 
1135 1 -0.0665642 -0.0596757 0.0164974 0.000423 0.501802 0.247265 2.02469 2650 
2271 1 -0.0652265 -0.0573468 0.022148 0.000116 -0.239125 1.28389 -0.70423 2650 
3850 1 -0.0641369 -0.0596377 0.0242778 0.000423 0.977866 -0.332268 2.58332 2650 
4268 1 -0.0642293 -0.04664 0.0250959 4.2e-05 0.156198 -4.15008 0.399768 2650 
2702 1 -0.0473835 -0.0561581 0.0499983 0.000116 -5.19637 0.377962 -4.92462 2650 
21 1 -0.0395443 -0.0457898 0.0560286 0.000423 1.82978 -0.172186 1.29144 2650 
1568 1 -0.0365969 -0.0613443 0.0579825 0.000423 1.01306 0.80282 0.592559 2650 
1380 1 -0.0338885 -0.0619239 0.0595802 0.000116 3.34092 0.779953 2.58118 2650 
1270 1 -0.0325741 -0.058116 0.0606955 0.000116 1.81968 0.950255 0.976584 2650 
947 1 -0.0275062 -0.0451621 0.063154 0.000116 -1.63454 -0.586142 -0.711908 2650 
3329 1 -0.0193938 -0.0473431 0.0657787 0.000423 2.11765 -0.243056 0.624355 2650 
1816 1 -0.0181501 -0.0614067 0.0664466 0.000116 -6.79497 0.0443175 -1.77868 2650 
1239 1 -0.00766816 -0.0620413 0.0680918 0.000423 0.19522 -0.0313439 0.408406 2650 
3313 1 -0.000806486 -0.0585346 0.0685733 0.000423 2.94162 0.248498 0.0345961 2650 
1638 1 -0.0109493 -0.0517745 0.0680084 0.000116 -6.90676 0.197645 -1.11198 2650 
200 1 -0.00142995 -0.0614618 0.0688693 0.000116 -1.08187 -0.71221 -0.0224632 2650 
4255 1 -0.0036711 -0.018135 -0.0687862 0.000116 -3.23444 -0.291122 0.172621 2650 
4016 1 -0.00178739 -0.010433 -0.0688609 0.000116 -3.20369 -0.214906 0.0831565 2650 
1392 1 -0.00212364 -0.0101046 -0.0688514 0.000116 -3.19473 -0.277888 0.0985377 2650 
733 1 -0.00395155 -0.0069746 -0.0687707 0.000116 -3.20813 -0.175383 0.184339 2650 
3607 1 -0.00754605 -0.041443 -0.0684696 0.000116 -1.24945 -0.464987 0.137702 2650 
4213 1 -0.00397331 -0.041141 -0.0684629 0.000423 -2.68638 -0.207287 0.155905 2650 
1107 1 -0.000402472 -0.0378972 -0.0683451 0.000656 -2.9896 -0.00611201 0.0176052 2650 
753 1 -0.0104846 -0.0334702 -0.0680815 0.000116 -1.04701 -0.450395 0.16124 2650 
689 1 -0.00916382 -0.0299571 -0.0679631 0.000423 -2.88923 -0.762207 0.389571 2650 
3741 1 -0.00277503 -0.0181535 -0.0685219 0.000423 -3.19007 -0.328858 0.129193 2650 
831 1 -0.00844318 -0.0125548 -0.0683647 0.000116 -3.17784 -0.18887 0.39247 2650 
2404 1 -0.0137796 -0.0176253 -0.0674918 0.000116 -3.13883 -0.129042 0.640845 2650 
1197 1 -0.0130813 -0.0138724 -0.0676306 0.000116 -3.19533 -0.652132 0.61805 2650 
1593 1 -0.0123102 -0.0123562 -0.0674642 0.000423 -3.13337 -0.321273 0.571746 2650 
1180 1 -0.011338 -0.0054956 -0.067748 0.000116 -3.31047 -0.141765 -0.138093 2650 
868 1 -0.0140262 -0.0045732 -0.0671589 0.000116 -3.08454 -0.0927641 1.02723 2650 
2835 1 -0.0183602 -0.0433612 -0.0663922 0.000116 -5.35878 1.64287 1.48192 2650 
2779 1 -0.0187358 -0.0216187 -0.0659691 0.000423 -2.76852 -0.431601 0.786281 2650 
3314 1 -0.0187075 -0.0162545 -0.0659697 0.000423 -3.06491 -0.626488 1.14339 2650 
2242 1 -0.0190152 -0.00664579 -0.0658891 0.000423 -3.09979 -0.150754 0.894578 2650 
2557 1 -0.0221353 -0.0420733 -0.0649074 0.000423 -1.53832 -0.179532 0.522521 2650 
625 1 -0.0225178 -0.00857469 -0.0650997 0.000116 -3.01959 -0.185488 1.04447 2650 
95 1 -0.0218935 -0.0055489 -0.0653123 0.000116 -3.03686 -0.123823 1.018 2650 
1463 1 -0.0240829 -0.0249163 -0.0642103 0.000423 -2.73072 -0.57657 1.02419 2650 
2028 1 -0.0251249 -0.024664 -0.0638098 0.000423 -2.33953 -0.220592 0.921182 2650 
2681 1 -0.0261854 -0.00890546 -0.063382 0.000423 -2.96711 -0.183866 1.22582 2650 
3840 1 -0.0267807 -0.0335444 -0.0628809 0.000656 -2.65937 -0.615212 1.13261 2650 
850 1 -0.0277238 -0.0317643 -0.0630588 0.000116 -2.52695 0.0291099 1.11097 2650 
1537 1 -0.0254147 -0.0291225 -0.063048 4.2e-05 6.53797 -1.16097 -0.925231 2650 
1136 1 -0.0302643 -0.0259684 -0.0615388 0.000423 -2.25709 -0.233923 1.11002 2650 
2954 1 -0.0313041 -0.0138566 -0.0613602 0.000116 -2.85027 -0.215626 1.45412 2650 
3817 1 -0.0327878 -0.0167693 -0.0605804 0.000116 -2.81654 -0.138836 1.52439 2650 
379 1 -0.0342973 -0.0257983 -0.0593856 0.000423 -2.12782 -0.225517 1.22889 2650 
336 1 -0.0354407 -0.0275111 -0.0584394 0.000656 -2.47135 -0.135501 1.49876 2650 
2920 1 -0.0356344 -0.0268114 -0.0589509 0.000116 3.03748 -0.358573 -1.83608 2650 
3881 1 -0.0359171 -0.0195743 -0.0584202 0.000423 -2.72458 -0.171352 1.67509 2650 
1410 1 -0.0355517 -0.0173499 -0.0590008 0.000116 -2.74442 -0.154223 1.65368 2650 
223 1 -0.0346204 -0.0135556 -0.0589291 0.000656 -2.78779 -0.231636 1.6378 2650 
3603 1 -0.0349369 -0.00336748 -0.0587942 0.000116 0.90972 2.33365 -0.309667 2650 
3319 1 -0.0365686 -0.0341417 -0.0580145 0.000423 -1.38259 0.379753 0.871497 2650 
3729 1 -0.0362348 -0.021423 -0.0579504 0.000656 -2.91427 -0.145565 1.82221 2650 
3390 1 -0.0368949 -0.0143833 -0.0581703 0.000116 -2.70485 -0.179473 1.71557 2650 
327 1 -0.0371238 -0.00479655 -0.0581122 4.2e-05 -2.69334 -0.102151 1.72059 2650 
1619 1 -0.0385059 -0.020096 -0.0561043 0.000116 -0.570203 -0.317686 1.35448 2650 
2367 1 -0.0393607 -0.0124518 -0.056531 0.000116 -2.62874 -0.193499 1.83031 2650 
4150 1 -0.0382421 -0.0062589 -0.0563194 0.000116 -3.67057 -1.60274 3.03564 2650 
902 1 -0.0403838 -0.0216672 -0.0554266 0.000423 -1.99064 -0.188293 1.45038 2650 
2048 1 -0.044331 -0.0138076 -0.0527236 0.000116 -2.45623 -0.194759 2.06525 2650 
3531 1 -0.0452706 -0.022983 -0.0515123 0.000423 -1.2236 -0.122215 1.07533 2650 
2588 1 -0.0454488 -0.0154076 -0.0517632 0.000116 -2.40578 -0.161877 2.1123 2650 
163 1 -0.0457381 -0.0318815 -0.0510977 0.000423 -2.07677 -0.159016 1.85894 2650 
2705 1 -0.0464651 -0.0275199 -0.0508529 0.000116 -0.884378 -0.770922 0.80807 2650 
4305 1 -0.0456545 -0.0144855 -0.0511725 0.000423 -2.38218 -0.229921 2.12531 2650 
681 1 -0.0469124 -0.0191731 -0.0500218 0.000423 -2.29739 -0.165106 2.15458 2650 
3779 1 -0.0468966 -0.011087 -0.0500366 0.000423 -2.35159 -0.217756 2.20402 2650 
2544 1 -0.0467494 -0.00935047 -0.0501742 0.000423 -2.34021 -0.278566 2.18048 2650 
228 1 -0.0473385 -0.0214613 -0.0492978 0.000656 -2.12495 -0.294374 2.0405 2650 
3514 1 -0.0470778 -0.0201814 -0.0495469 0.000656 -2.2248 -0.253266 2.11393 2650 
4056 1 -0.00499047 -0.0110187 -0.0494636 0.000656 -0.730035 -0.651963 -7.34803 2650 
2256 1 -0.0497448 -0.0312428 -0.0476495 0.000116 -0.837012 -0.782786 0.873818 2650 
2928 1 -0.0493809 -0.0232104 -0.0480265 0.000116 1.24804 -0.329395 -1.28324 2650 
2691 1 -0.0505773 -0.0219234 -0.0463129 0.000423 -1.88651 -0.355718 2.06021 2650 
3615 1 -0.0514761 -0.00871495 -0.0458849 4.2e-05 -2.14207 -0.135029 2.40309 2650 
427 1 -0.052387 -0.0331978 -0.0447283 0.000116 -0.69387 -0.405781 0.81268 2650 
575 1 -0.0518569 -0.0290183 -0.0448756 0.000423 -1.81869 -0.452563 2.10163 2650 
2911 1 -0.0523394 -0.0278628 -0.0443118 0.000423 -1.92272 -0.383655 2.27104 2650 
1202 1 -0.0524259 -0.018771 -0.0447966 4.2e-05 -2.04843 -0.149505 2.3973 2650 
2232 1 -0.0530517 -0.0265534 -0.0434565 0.000423 -1.8298 -0.0492063 2.23382 2650 
3649 1 -0.0528268 -0.019369 -0.0437297 0.000423 -2.03742 -0.209894 2.46127 2650 
3372 1 -0.0536003 -0.0218572 -0.043267 0.000116 -1.78972 0.0656014 2.21716 2650 
2087 1 -0.0540138 -0.0189574 -0.0428687 4.2e-05 -2.02661 -0.162963 2.55349 2650 
3038 1 -0.0538322 -0.00164078 -0.042978 0.000116 -1.51012 -0.182949 1.8915 2650 
1407 1 -0.0545073 -0.0145035 -0.0421186 0.000116 -1.96676 -0.256802 2.54526 2650 
1952 1 -0.0552231 -0.00221831 -0.0411757 0.000116 -1.90629 -0.0677025 2.55664 2650 
2350 1 -0.0558397 -0.0143132 -0.0398107 0.000423 -1.86321 -0.224028 2.6134 2650 
38 1 -0.0564019 -0.0298005 -0.03901 0.000423 -1.69572 -0.240876 2.45173 2650 
1461 1 -0.0565794 -0.0196828 -0.0387522 0.000423 -1.81492 -0.210078 2.64984 2650 
1275 1 -0.0566425 -0.0107556 -0.0392002 0.000116 -1.82242 -0.191624 2.63331 2650 
83 1 -0.0569605 -0.0209567 -0.0386248 0.000116 -0.991038 -0.303075 0.811272 2650 
4069 1 -0.0571552 -0.0160433 -0.0378978 0.000423 -1.76954 -0.295919 2.66872 2650 
4009 1 -0.0576485 -0.0135807 -0.037705 0.000116 -1.75221 -0.201968 2.67902 2650 
3375 1 -0.0578007 -0.00756637 -0.0374714 0.000116 -1.74239 -0.167913 2.68769 2650 
343 1 -0.0010281 -0.0116039 -0.0364444 0.000423 -0.144285 -1.08754 -5.14053 2650 
2051 1 -0.0590885 -0.0177008 -0.0354059 0.000116 -1.64835 -0.198503 2.75091 2650 
759 1 -0.0596709 -0.0141131 -0.0344151 0.000116 -1.586 -0.00275404 2.7499 2650 
3671 1 -0.0599871 -0.0105886 -0.0332341 0.000423 -1.55473 -0.223734 2.80626 2650 
2083 1 -0.060531 -0.00760262 -0.0330334 4.2e-05 -2.2287 -0.587034 4.0839 2650 
2198 1 -0.0606095 -0.00788851 -0.0328892 4.2e-05 -1.52712 -0.172778 2.81423 2650 
1585 1 -0.060407 -0.00577876 -0.0324226 0.000423 -1.37088 -0.130306 2.90902 2650 
747 1 -0.0615763 -0.0353055 -0.030877 0.000116 -1.6573 -0.590124 3.30507 2650 
4372 1 -0.06189 -0.0339438 -0.0304111 4.2e-05 4.66936 0.159373 -9.50267 2650 
981 1 -0.0617898 -0.0200538 -0.0306142 4.2e-05 -1.41511 -0.244458 2.85617 2650 
2703 1 -0.0621023 -0.0176027 -0.0298048 0.000116 -1.38556 -0.27728 2.887 2650 
167 1 -0.0622243 -0.013115 -0.0295493 0.000116 -1.36503 -0.319613 2.87446 2650 
4087 1 -0.0635397 -0.0213522 -0.0258003 0.000423 -0.761827 -0.148171 1.87619 2650 
2291 1 -0.0639558 -0.00906958 -0.0255866 0.000116 -1.19021 -0.187788 2.97503 2650 
2832 1 -0.0625547 -0.00546341 -0.0252796 0.000116 1.24566 -0.150732 3.68626 2650 
2966 1 -0.0636251 -0.0185443 -0.0249612 0.000656 -1.20525 -0.148361 3.07213 2650 
2858 1 -0.0638713 -0.0202979 -0.0243009 0.000656 -1.04126 -0.243076 3.18371 2650 
2559 1 -0.00571599 -0.00777215 -0.0241016 0.000423 -0.628903 -0.608469 -2.86445 2650 
2895 1 -0.0646647 -0.0141441 -0.0228348 0.000423 -1.06681 -0.162154 3.02104 2650 
3018 1 -0.0653008 -0.0354555 -0.0209466 0.000423 -0.91927 -0.438595 2.86581 2650 
2102 1 -0.0651082 -0.00274201 -0.0207879 0.000656 -0.863672 -0.165218 2.70505 2650 
1924 1 -0.0655608 -0.0184504 -0.0201182 0.000423 -0.938744 -0.60153 3.05916 2650 
1905 1 -0.0659223 -0.0311907 -0.0188999 0.000423 -0.766561 -0.112024 2.67374 2650 
632 1 -0.0661651 -0.0155991 -0.0191624 0.000116 0.559053 -1.32011 -1.93033 2650 
3580 1 -0.0662584 -0.0172938 -0.0188373 0.000116 -0.862398 -0.196185 3.03341 2650 
1901 1 -0.0102406 -0.00396579 -0.0179668 0.000423 -1.3926 -0.106249 -2.40275 2650 
2606 1 -0.00202855 -0.00373099 -0.0174714 0.000116 -0.228839 -0.134161 -1.31796 2650 
4250 1 -0.0668285 -0.0406909 -0.0167026 0.000116 0.853216 -5.11736 -3.41379 2650 
606 1 -0.000183 0.00410134 -0.016592 0.000116 0 -0.011753 0 2650 
2713 1 -0.000763 0.0110723 -0.016767 0.000116 0 -0.011753 0 2650 
3904 1 -0.00396026 -0.00251306 -0.01609 0.000116 -0.00761556 -0.0338408 0.0525297 2650 
4116 1 -0.00458431 -0.00167165 -0.0160766 0.000116 -0.100858 -0.038207 0.0748494 2650 
2875 1 -0.00209462 -0.00191422 -0.0161216 0.000423 -0.0519498 -0.0301432 -0.0177238 2650 
2127 1 -0.00417741 -0.00119936 -0.0159721 0.000423 -0.149293 0.0529164 0.0633883 2650 
1991 1 -0.00359335 0.000693374 -0.0158779 0.000656 -0.0269186 -0.00167756 -0.00287488 2650 
150 1 -0.00202347 0.000638127 -0.0163166 0.000423 -0.00905839 0.0051051 -0.00106565 2650 
736 1 -0.003429 0.00202634 -0.016474 0.000116 0 -0.011753 0 2650 
676 1 -0.000950496 0.00196977 -0.0160254 0.000423 -0.0285827 0.0077176 0.0232959 2650 
2013 1 -0.00295817 0.00344389 -0.0162247 0.000423 0.00298908 -0.00809762 0.00112683 2650 
1698 1 -0.000464503 0.00341864 -0.0162382 0.000423 -0.0123561 0.00250859 -0.0148315 2650 
2301 1 -0.004222 0.00587434 -0.016305 4.2e-05 0 -0.011753 0 2650 
3789 1 -0.00112487 0.00594013 -0.0162445 0.000116 0.030547 0.0102001 0.00865191 2650 
188 1 -0.00068 0.00564334 -0.016516 0.000116 0 -0.011753 0 2650 
3546 1 -0.00148077 0.00658238 -0.0163902 0.000423 0.0217346 0.00883054 0.00600288 2650 
3616 1 -0.000938 0.00643834 -0.016074 4.2e-05 0 -0.011753 0 2650 
508 1 -0.00389754 0.00739128 -0.0163402 0.000116 -0.0781642 0.00970087 0.0217657 2650 
3934 1 -0.001977 0.00886334 -0.016218 0.000116 0 -0.011753 0 2650 
1979 1 -0.00355478 0.015735 -0.0160426 4.2e-05 -0.060479 0.115177 0.0648972 2650 
3455 1 -0.00266311 0.0153766 -0.0160209 0.000423 0.0108365 0.0310717 0.0944532 2650 
893 1 -0.0668839 -0.0424988 -0.0151492 0.000423 -0.577878 0.0144492 2.55133 2650 
1914 1 -0.066895 -0.0302718 -0.0150999 0.000423 -0.597239 -0.211027 2.64586 2650 
3357 1 -0.0118055 -0.00392952 -0.0152692 0.000116 -1.06554 -0.165757 -1.50169 2650 
2690 1 -0.0017356 -0.0026424 -0.0153758 0.000423 -0.0110062 -0.0487697 -0.0147461 2650 
93 1 -0.00662378 -0.00189714 -0.0153475 0.000116 -0.0674932 -0.0307806 0.026204 2650 
330 1 -0.00254135 -0.00193073 -0.0151197 4.2e-05 -0.0696064 -0.0147686 0.0345761 2650 
1808 1 -0.00433442 -0.00146684 -0.0150621 0.000423 -0.09917 -0.00100579 0.0752933 2650 
3733 1 -0.00456193 -2.53684e-05 -0.0153157 0.000656 -0.0248277 0.00314984 0.0161296 2650 
2645 1 -0.00278601 -0.000671718 -0.0153818 0.000656 -0.0636737 0.00703526 0.0681332 2650 
2313 1 -0.004941 0.0023334 -0.0153767 0.000656 -0.00048439 0.0541327 0.00642736 2650 
1618 1 -0.00609127 0.00272246 -0.0152718 0.000116 -0.0316941 0.0615295 0.00665882 2650 
1620 1 -0.00731797 0.0039083 -0.0150269 0.000116 0.0432755 0.0552866 -0.0445268 2650 
1679 1 -0.00361653 0.00317277 -0.0156753 0.000423 -0.000267589 -0.00703629 -0.00433961 2650 
2399 1 -0.002418 0.00431534 -0.015541 0.000116 0 -0.011753 0 2650 
4296 1 -0.00147345 0.00473249 -0.0157892 0.000423 0.00734757 -0.0161826 -0.00468825 2650 
3121 1 -0.00550041 0.005038 -0.0154428 0.000423 0.0277737 -0.000599869 -0.0089826 2650 
234 1 -0.00387951 0.00514095 -0.0157419 0.000423 0.0351287 -0.0167305 0.0264562 2650 
1219 1 -0.00212593 0.00569955 -0.0156355 0.000656 0.0247953 0.0119825 -0.00616517 2650 
2969 1 -0.00133486 0.00695143 -0.0152662 0.000656 0.00354333 -0.00674524 0.00643714 2650 
978 1 -0.005372 0.00756134 -0.015286 0.000116 0 -0.011753 0 2650 
2596 1 -0.0058426 0.00843276 -0.015421 0.000116 -0.0696583 -0.0414928 -0.0233005 2650 
86 1 -0.002064 0.0101193 -0.015055 0.000116 0 -0.011753 0 2650 
3177 1 -0.001068 0.00991934 -0.015412 4.2e-05 0 -0.011753 0 2650 
3830 1 -0.006879 0.0104153 -0.015411 4.2e-05 0 -0.011753 0 2650 
938 1 -0.000869 0.0113253 -0.015416 0.000116 0 -0.011753 0 2650 
1254 1 -0.00663481 0.0234475 -0.015132 0.000423 0.121139 0.015699 0.0656716 2650 
2701 1 -0.000931251 0.0266411 -0.0155902 0.000116 0.0331549 0.247236 -0.00676049 2650 
1347 1 -0.00632267 0.0364784 -0.0152831 0.000423 -0.162332 0.209952 0.0301271 2650 
2732 1 -0.0673763 -0.0170727 -0.0143336 0.000116 -0.666608 -0.387949 3.13346 2650 
2965 1 -0.00149187 -0.00291738 -0.0149593 4.2e-05 -0.0448143 -0.0612344 0.0351436 2650 
3502 1 -0.001236 -0.00277566 -0.014816 4.2e-05 0 -0.011753 0 2650 
3196 1 -0.00613468 -0.00152628 -0.0148794 0.000423 0.000846778 -0.0279426 0.0233611 2650 
1640 1 -0.000965969 -0.00146369 -0.0149462 4.2e-05 0.028899 -0.0133034 -0.0332578 2650 
541 1 -0.00414944 -0.000111127 -0.0146465 4.2e-05 -0.0428204 0.0143713 0.0426846 2650 
2413 1 -0.003433 -0.000760659 -0.014868 4.2e-05 0 -0.011753 0 2650 
3441 1 -0.00215173 -0.000295654 -0.0143691 0.000423 0.0511961 0.0224295 0.00157087 2650 
1053 1 -0.007469 0.000473341 -0.014946 0.000116 0 -0.011753 0 2650 
2332 1 -0.00337143 0.000790282 -0.0148207 0.000423 -0.0143857 -0.0101332 -0.00516203 2650 
3239 1 -0.00222334 0.000884049 -0.0145905 0.000116 -0.00859694 0.0134975 -0.018679 2650 
220 1 -0.003649 0.00337834 -0.014897 4.2e-05 0 -0.011753 0 2650 
3322 1 -0.0045386 0.00425739 -0.01481 0.000423 0.00353739 -0.017928 0.0139954 2650 
3380 1 -0.002134 0.00530204 -0.0144712 0.000116 -0.00133046 -0.0120531 0.0302183 2650 
1584 1 -0.00218524 0.00583642 -0.0145432 0.000423 0.0363341 -0.010201 -0.0600524 2650 
3147 1 -0.00149823 0.00616227 -0.0148354 0.000116 0.0591802 0.0154935 -0.054385 2650 
3564 1 -0.000147 0.00610434 -0.014738 0.000423 0 -0.011753 0 2650 
2438 1 -0.00563707 0.00678115 -0.0146462 0.000423 -0.00278545 -0.000108858 -0.00379545 2650 
3365 1 -0.002315 0.00674134 -0.014552 0.000116 0 -0.011753 0 2650 
4190 1 -0.00757376 0.00856423 -0.0146995 0.000423 -0.0050161 9.46442e-05 0.00199468 2650 
3515 1 -0.0064796 0.00863189 -0.0147809 0.000656 -0.0124684 -0.0117033 0.0111726 2650 
1986 1 -0.00354312 0.00859928 -0.0147437 0.000656 0.00762539 0.0149956 0.0116892 2650 
1228 1 -0.00133505 0.0101933 -0.0149627 0.000423 -0.00123313 -0.0118667 -0.000623591 2650 
371 1 -0.000516471 0.0104672 -0.0147723 0.000423 0.000724313 -0.00601752 -0.0061741 2650 
3669 1 -0.000437691 0.0112625 -0.0143452 0.000423 0.00220454 -0.00743356 -0.00383523 2650 
3632 1 -0.00787821 0.0127823 -0.014483 0.000423 -0.0240755 -0.00064867 0.0133566 2650 
675 1 -0.00397219 0.0157431 -0.0142666 0.000423 -0.0171714 0.0807922 0.0289201 2650 
2467 1 -0.00348156 0.0222194 -0.0148073 0.000423 0.022189 0.122131 -0.0980488 2650 
2209 1 -0.00704881 0.0242995 -0.0146126 0.000656 0.191496 0.0767231 -0.0925153 2650 
4267 1 -0.005064 0.0248185 -0.0147229 4.2e-05 0.0268407 0.137161 0.0861779 2650 
3034 1 -0.000412511 -0.00564902 -0.0135659 0.000116 -0.0594557 -0.201338 -2.09864 2650 
955 1 -0.00747284 -0.00182386 -0.0140742 0.000116 -0.12233 -0.0547202 -0.0330024 2650 
3295 1 -0.00860207 -0.0015604 -0.0136632 0.000656 -0.140895 0.0623342 -0.0300138 2650 
3999 1 -0.000790087 -0.00101119 -0.0141573 0.000423 0.0633343 0.0169118 -0.00164129 2650 
388 1 -0.0088225 -0.000691427 -0.0138265 0.000116 0.0236814 -0.0100826 0.0328607 2650 
4126 1 -0.00267556 -0.000540321 -0.0135859 0.000116 -0.0261531 0.0084042 0.00402279 2650 
3778 1 -0.00393984 0.000123658 -0.0138563 0.000423 -0.0020891 -0.0120479 -0.00153571 2650 
2827 1 -0.0035402 0.000451752 -0.0140776 0.000116 -0.0114326 -0.00406705 -0.0295293 2650 
2783 1 -0.00169091 0.00066931 -0.014185 0.000423 0.0360827 0.036432 -0.00772183 2650 
3637 1 -0.0030416 0.00108632 -0.0140942 0.000423 -0.00927015 0.0142513 -0.0137177 2650 
450 1 -0.00751382 0.00187921 -0.0139881 0.000656 0.0343621 0.0395209 0.0260939 2650 
248 1 -0.00509323 0.00173664 -0.0135781 0.000423 -0.125752 -0.00445654 0.0417904 2650 
3798 1 -0.000373447 0.00196276 -0.0135204 0.000116 -0.0483102 0.213285 0.0286816 2650 
2219 1 -0.00741739 0.00291706 -0.0136433 0.000423 0.0573797 0.046564 0.0166916 2650 
1774 1 -0.000134884 0.00287688 -0.0137651 0.000423 0.0334231 0.0535311 -0.0530131 2650 
3645 1 -0.00302506 0.0036991 -0.0138161 0.000423 -0.0384881 -0.00405051 0.0134405 2650 
222 1 -0.00163603 0.00337224 -0.0138326 0.000656 -0.000929496 -0.0489405 -0.0286938 2650 
2283 1 -0.000132203 0.00390231 -0.0136262 0.000116 0.0261736 0.0795444 -0.0359083 2650 
3587 1 -0.00606466 0.0040557 -0.0138234 0.000116 0.00461134 0.0023037 -0.00278329 2650 
104 1 -0.00245051 0.00470145 -0.0140869 4.2e-05 -0.00674979 0.0150481 0.0116551 2650 
4165 1 -0.00533253 0.00587821 -0.0140668 0.000656 0.00463225 0.00751739 0.0156563 2650 
2322 1 -0.0075297 0.00798308 -0.0137879 0.000656 -0.00729611 -0.00721677 -0.000335448 2650 
1288 1 -0.002467 0.00804434 -0.014044 0.000116 0 -0.011753 0 2650 
2222 1 -0.000169 0.00867334 -0.014111 0.000423 0 -0.011753 0 2650 
581 1 -0.005568 0.00956534 -0.014167 0.000423 0 -0.011753 0 2650 
2483 1 -0.00922291 0.011034 -0.0139845 0.000116 -0.0165283 -0.027419 -0.0195094 2650 
1476 1 -0.006941 0.0108443 -0.013435 0.000423 0 -0.011753 0 2650 
1409 1 -0.00044 0.0118243 -0.013868 0.000116 0 -0.011753 0 2650 
2109 1 -0.00401916 0.0162996 -0.0135762 0.000423 -0.0277695 0.107912 0.0279852 2650 
3205 1 -0.000936917 0.0254928 -0.0134785 0.000423 -0.0474712 0.144601 0.126977 2650 
1357 1 -0.00794931 0.0275198 -0.0141096 0.000423 0.0624779 0.287902 -0.0352894 2650 
819 1 -0.00697453 0.029782 -0.0135989 0.000423 0.076373 0.150736 0.0329282 2650 
2206 1 -0.00423739 0.0537946 -0.0142059 0.000656 0.075662 -0.243847 -0.391592 2650 
2039 1 -0.0677092 -0.0306978 -0.0126682 0.000116 -0.452547 0.542229 2.41878 2650 
3174 1 -0.0677452 -0.0287539 -0.0128761 4.2e-05 0.8697 -0.588711 -4.57578 2650 
3633 1 -0.00941 -0.00315966 -0.013111 0.000423 0 -0.011753 0 2650 
1393 1 -0.0107209 -0.00238553 -0.0128389 0.000116 -0.0365642 -0.00979486 0.0367338 2650 
3303 1 -0.0101442 -0.000723143 -0.0126416 0.000656 -0.0526307 0.0507707 0.0365926 2650 
3200 1 -0.00727717 -0.000153256 -0.013313 0.000423 0.0205513 0.040167 0.0362369 2650 
3551 1 -0.005293 0.000185341 -0.013215 0.000423 0 -0.011753 0 2650 
2817 1 -0.00306443 0.000260183 -0.0129522 0.000116 -0.0539328 -0.00567838 -0.0938536 2650 
623 1 -0.00616953 0.00109084 -0.012641 0.000116 -0.0418007 -0.0241435 -0.0222958 2650 
2525 1 -0.004063 0.00227134 -0.013231 4.2e-05 0 -0.011753 0 2650 
1125 1 -0.00277029 0.00222805 -0.0133064 0.000423 -0.0447254 0.0166037 0.0212545 2650 
1595 1 -0.007474 0.00292934 -0.012756 0.000423 0 -0.011753 0 2650 
2619 1 -0.005851 0.00308734 -0.012854 0.000116 0 -0.011753 0 2650 
2609 1 -0.00886 0.00381134 -0.013248 0.000116 0 -0.011753 0 2650 
1093 1 -0.005136 0.00346323 -0.0133263 4.2e-05 -0.0377884 0.0174852 0.109535 2650 
3880 1 -0.010277 0.00400334 -0.012913 0.000423 0 -0.011753 0 2650 
3917 1 -0.003984 0.00457234 -0.012703 0.000116 0 -0.011753 0 2650 
2194 1 -0.00264808 0.00457368 -0.0126393 4.2e-05 0.00491046 0.00111596 0.00228026 2650 
2918 1 -0.00757 0.00516234 -0.012948 0.000116 0 -0.011753 0 2650 
2059 1 -0.003583 0.00478134 -0.012756 0.000116 0 -0.011753 0 2650 
2547 1 -0.0102873 0.0066675 -0.0128607 0.000423 -0.0187488 0.0289195 0.0215408 2650 
4078 1 -0.00757553 0.00699574 -0.0128102 0.000423 -0.0196946 -0.00953845 0.00130892 2650 
1427 1 -0.002948 0.00711234 -0.013376 4.2e-05 0 -0.011753 0 2650 
3259 1 -0.00813701 0.00821576 -0.0133483 0.000116 -0.00597746 -0.00895275 0.0028953 2650 
1795 1 -0.008775 0.00911134 -0.012959 0.000423 0 -0.011753 0 2650 
1769 1 -0.00523178 0.00898739 -0.0131132 0.000656 -0.011011 -0.0133928 0.00327466 2650 
958 1 -0.00402992 0.00963805 -0.012701 0.000116 0.0401715 0.0303898 0.081686 2650 
205 1 -0.000744 0.00982834 -0.01334 0.000116 0 -0.011753 0 2650 
4257 1 -0.0100817 0.0124533 -0.0132142 0.000116 0.0616028 0.00285205 -0.0504011 2650 
1775 1 -0.00822262 0.0125393 -0.013018 0.000423 -7.29146e-05 -0.011186 -0.000346901 2650 
3644 1 -0.000733 0.0124993 -0.013392 0.000423 0 -0.011753 0 2650 
884 1 -0.00653426 0.0140569 -0.012743 0.000656 -0.0213431 0.0225291 0.0346991 2650 
85 1 -0.00870203 0.0183054 -0.0131593 0.000116 0.154819 -0.544812 0.142183 2650 
2166 1 -0.00953858 -0.0023146 -0.0119582 0.000116 0.0145125 -0.0822049 -0.0164607 2650 
4097 1 -0.00980915 -0.00184377 -0.0120009 0.000423 -0.00413823 -0.0804419 -0.152401 2650 
3960 1 -0.00870752 -0.00199636 -0.0121243 0.000423 -0.0011096 -0.0310235 -0.0206256 2650 
545 1 -0.002328 -0.00170366 -0.012432 4.2e-05 0 -0.011753 0 2650 
2819 1 -0.007468 -0.00116966 -0.012046 0.000116 0 -0.011753 0 2650 
2468 1 -0.003167 -0.00133066 -0.012131 0.000423 0 -0.011753 0 2650 
1763 1 -0.001143 -0.00104266 -0.012442 0.000656 0 -0.011753 0 2650 
950 1 -0.010031 -0.000437659 -0.011866 0.000116 0 -0.011753 0 2650 
2939 1 -0.00969448 -0.000372994 -0.0120421 0.000116 0.0323027 0.120106 -0.00581553 2650 
3191 1 -0.00620359 -0.000650729 -0.0120181 0.000656 -0.00833246 0.0061838 -0.01197 2650 
3201 1 -0.00552277 0.00136452 -0.0125559 0.000423 -0.0306487 -0.0168839 -0.0321676 2650 
1422 1 -0.003881 0.000803341 -0.012349 4.2e-05 0 -0.011753 0 2650 
1799 1 -0.00323585 0.00161708 -0.0120602 0.000423 7.10678e-05 -0.0118308 4.63239e-05 2650 
3389 1 -0.010415 0.00306934 -0.012026 0.000116 0 -0.011753 0 2650 
3956 1 -0.00898883 0.00240827 -0.012283 0.000656 -0.000838464 -0.0112695 -0.000254236 2650 
2957 1 -0.00316738 0.00255061 -0.0122448 4.2e-05 0.0205169 0.0248349 -0.000218849 2650 
2922 1 -0.0034309 0.00276673 -0.0121458 0.000116 -0.0492521 -0.0166623 -0.0574868 2650 
1569 1 -0.00343502 0.00420544 -0.0118785 0.000423 -0.0101167 -0.00131963 0.0156048 2650 
411 1 -0.00987939 0.00502783 -0.0120843 0.000116 -0.00787832 -0.00657823 -8.20909e-05 2650 
3826 1 -0.009208 0.00496434 -0.012552 0.000116 0 -0.011753 0 2650 
3316 1 -0.008979 0.00571734 -0.012376 0.000423 0 -0.011753 0 2650 
1261 1 -0.007462 0.00562134 -0.012403 0.000423 0 -0.011753 0 2650 
3362 1 -0.002672 0.00573034 -0.012199 0.000116 0 -0.011753 0 2650 
3446 1 -0.002592 0.00672434 -0.012627 0.000423 0 -0.011753 0 2650 
2913 1 -0.0054665 0.007727 -0.0122255 0.000116 -0.028239 -0.0119827 -0.0130286 2650 
3030 1 -0.001189 0.00722734 -0.012596 0.000116 0 -0.011753 0 2650 
191 1 -0.011348 0.00854834 -0.012254 0.000116 0 -0.011753 0 2650 
4318 1 -0.00819603 0.00821112 -0.0125475 0.000423 -0.00589465 -0.00768269 0.00318441 2650 
713 1 -0.00622345 0.008143 -0.012605 0.000423 -0.0229952 -0.0104665 0.0222494 2650 
3847 1 -0.00973486 0.00915423 -0.0124047 0.000656 6.67707e-05 -0.0116743 2.1441e-05 2650 
3173 1 -0.004958 0.00935634 -0.012321 4.2e-05 0 -0.011753 0 2650 
949 1 -0.00519419 0.00899404 -0.0120238 0.000116 -0.0176455 0.0180502 -0.0430698 2650 
1495 1 -0.004483 0.00869534 -0.012591 0.000116 0 -0.011753 0 2650 
4002 1 -0.000443 0.00938834 -0.01223 0.000116 0 -0.011753 0 2650 
1250 1 -0.007399 0.00987434 -0.012448 0.000423 0 -0.011753 0 2650 
192 1 -0.00216507 0.00966047 -0.012202 0.000116 0.052188 -0.0401332 -0.079726 2650 
2630 1 -0.001036 0.00956434 -0.012074 4.2e-05 0 -0.011753 0 2650 
65 1 -0.0105781 0.0105839 -0.012061 0.000116 -0.0854753 -0.0262945 -0.00799851 2650 
233 1 -0.00483368 0.0106298 -0.012023 0.000423 0.00253467 -0.0140185 -0.0192435 2650 
1423 1 -0.00145 0.0110443 -0.012526 4.2e-05 0 -0.011753 0 2650 
963 1 -0.00232652 0.0121184 -0.0121734 0.000116 -0.0512099 -0.0542754 -0.0325787 2650 
2205 1 -0.0049757 0.0132178 -0.0119518 0.000656 -0.00241752 0.00375043 0.00610124 2650 
1143 1 -0.00131737 0.0136818 -0.0120863 0.000423 0.0070315 0.0110531 -0.00616027 2650 
3932 1 -0.00533847 0.0169167 -0.0123088 0.000116 -0.0403354 0.0602269 -0.135114 2650 
3216 1 -0.00211392 0.0166269 -0.0125286 0.000423 -0.0601615 0.128493 -0.0913681 2650 
728 1 -0.0027519 0.019059 -0.0123525 0.000116 0.0277452 0.106546 0.043675 2650 
1900 1 -0.00752555 0.0282889 -0.0125761 0.000423 0.00650864 0.175596 0.0646267 2650 
428 1 -0.0678963 -0.0128919 -0.011624 0.000116 -0.542408 -0.3372 3.16822 2650 
615 1 -0.067905 -0.00505405 -0.0115734 0.000116 -0.62387 0.64675 3.63623 2650 
3679 1 -0.012092 -0.00299266 -0.011604 0.000116 0 -0.011753 0 2650 
2072 1 -0.009308 -0.00313066 -0.011721 0.000116 0 -0.011753 0 2650 
3505 1 -0.006952 -0.00203466 -0.011235 4.2e-05 0 -0.011753 0 2650 
1022 1 -0.002093 -0.00216466 -0.011454 0.000423 0 -0.011753 0 2650 
440 1 -0.00061 -0.000732659 -0.011485 4.2e-05 0 -0.011753 0 2650 
369 1 -0.0108412 0.000309278 -0.0116297 0.000423 0.0722474 -0.0143206 -0.0326868 2650 
509 1 -0.0100309 0.000204626 -0.0114914 0.000116 -0.0969329 -0.0471378 -0.104351 2650 
4215 1 -0.011184 0.00137634 -0.011524 0.000423 0 -0.011753 0 2650 
3643 1 -0.00632855 0.00108498 -0.0115614 0.000423 -0.0386014 -0.00662447 0.00484329 2650 
1468 1 -0.00293779 0.00140799 -0.011067 0.000423 -0.0197001 -0.0470204 -0.0326717 2650 
2279 1 -0.011345 0.00193934 -0.01145 0.000116 0 -0.011753 0 2650 
2579 1 -0.00873044 0.00160772 -0.0111672 0.000423 -0.000311164 -0.0069809 0.00202215 2650 
3535 1 -9.9e-05 0.00167934 -0.011488 0.000423 0 -0.011753 0 2650 
1063 1 -0.009531 0.00299334 -0.011683 0.000116 0 -0.011753 0 2650 
3894 1 -0.005583 0.00243834 -0.011098 0.000116 0 -0.011753 0 2650 
3383 1 -0.011681 0.00398834 -0.011229 0.000116 0 -0.011753 0 2650 
1657 1 -0.00946744 0.00429183 -0.011444 0.000656 -0.0116375 -0.0115716 0.0121112 2650 
2294 1 -0.004894 0.00467434 -0.011565 0.000116 0 -0.011753 0 2650 
878 1 -0.003908 0.00515734 -0.011202 4.2e-05 0 -0.011753 0 2650 
708 1 -0.00255622 0.00493818 -0.0115107 0.000423 -0.0031746 -0.00580761 -0.0104884 2650 
1215 1 -0.0106987 0.0061464 -0.0112454 0.000656 -0.0157163 -0.0116904 0.0020601 2650 
2512 1 -0.00988312 0.00567543 -0.0114543 0.000116 0.002514 -0.0160812 -0.0313025 2650 
1822 1 -0.008034 0.00572734 -0.011166 0.000116 0 -0.011753 0 2650 
1758 1 -0.00201 0.00598834 -0.01144 4.2e-05 0 -0.011753 0 2650 
2409 1 -0.002586 0.00705834 -0.011527 4.2e-05 0 -0.011753 0 2650 
4027 1 -0.003218 0.00711934 -0.011075 0.000116 0 -0.011753 0 2650 
2798 1 -0.008755 0.00815834 -0.01131 0.000423 0 -0.011753 0 2650 
1617 1 -0.00424013 0.00904743 -0.0114924 0.000116 -0.0309028 0.00993845 -0.089988 2650 
3684 1 -0.00460446 0.0097146 -0.011787 0.000116 0.00413104 -0.0230128 -0.00941473 2650 
3106 1 -0.00434627 0.010131 -0.0111374 0.000423 -0.0443725 0.0282811 -0.0284766 2650 
4314 1 -0.00978349 0.0107075 -0.0118046 0.000423 -0.0535146 -0.0274014 -0.00338754 2650 
4179 1 -0.00622214 0.0105032 -0.0111458 0.000423 -0.019419 -0.0184876 -0.0181928 2650 
70 1 -0.0103784 0.0111576 -0.011732 0.000116 0.00881709 0.0274246 0.0240282 2650 
3145 1 -0.006381 0.0115103 -0.011273 0.000116 0 -0.011753 0 2650 