ITEM: TIMESTEP
5345010
ITEM: NUMBER OF ATOMS
4356
ITEM: BOX BOUNDS ff ff ff
-0.15 0.15
-0.15 0.06
-0.15 0.15
ITEM: ATOMS id type x y z radius vx vy vz density 
3308 1 -0.00265661 -0.0578381 -0.0685266 0.000423 -2.56419 -0.318382 0.0994074 2650 
1563 1 -0.0122644 -0.0576669 -0.0674725 0.000423 -3.33322 0.376671 0.605873 2650 
2855 1 -0.0181117 -0.0586447 -0.066537 4.2e-05 -1.37611 0.224346 0.374583 2650 
4139 1 -0.0158867 -0.0582907 -0.0670271 0.000116 -1.18832 0.27082 0.281655 2650 
4037 1 -0.0123306 -0.0623913 -0.065166 0.000116 11.6715 0.469424 -1.99321 2650 
418 1 -0.0108537 -0.0604871 -0.0627767 0.000116 10.5332 0.732718 -4.41607 2650 
1417 1 -0.0349241 -0.053829 -0.0593745 0.000116 -1.9002 -0.114828 1.1177 2650 
1591 1 -0.0336809 -0.0472968 -0.0597035 0.000423 -1.46629 0.319286 0.716721 2650 
208 1 -0.0339723 -0.0490173 -0.0589431 0.000116 -0.662442 -5.93875 4.23805 2650 
1520 1 -0.0371384 -0.0526298 -0.0580152 0.000116 5.77072 -0.286356 -3.69412 2650 
1961 1 -0.0430867 -0.0561512 -0.0537453 0.000116 1.56409 0.375183 -1.2539 2650 
4016 1 -0.0464763 -0.059562 -0.0508427 0.000116 4.62915 2.95387 -4.23159 2650 
4150 1 -0.0576508 -0.0585042 -0.0377015 0.000116 0.736129 0.833294 -1.12564 2650 
3425 1 -0.062708 -0.0617259 -0.0277607 0.000423 -0.844553 0.0756739 1.90777 2650 
51 1 -0.0628971 -0.0467282 -0.0273294 0.000423 0.375021 0.420832 -0.86309 2650 
1996 1 -0.0628792 -0.0456182 -0.0273707 0.000423 -1.04223 0.34594 2.39434 2650 
1051 1 -0.0652065 -0.062684 -0.0222141 0.000116 -0.69161 -2.59813e-05 1.74752 2650 
4316 1 -0.0649255 -0.0621424 -0.0220898 0.000423 -0.785219 0.128432 2.02288 2650 
2201 1 -0.0660163 -0.051764 -0.017693 0.000656 0.0571551 0.69602 -0.213257 2650 
19 1 -0.067426 -0.0623074 -0.0124849 0.000423 0.0941609 0.0106841 0.0274757 2650 
3692 1 -0.0686778 -0.0542005 -0.00532713 0.000116 0.0418754 0.252922 -0.539861 2650 
2790 1 -0.0674905 -0.0492517 0.0121648 0.000423 0.430043 -0.223576 2.3859 2650 
2083 1 -0.0674923 -0.054177 0.0141421 4.2e-05 0.139686 0.120434 0.666643 2650 
2274 1 -0.0662439 -0.0608508 0.017393 0.000116 -1.09466 0.455934 -6.74123 2650 
649 1 -0.0663805 -0.0576087 0.0184024 0.000116 -0.499476 -2.63236 -1.80169 2650 
2557 1 -0.0658156 -0.0462862 0.0192681 0.000423 0.459669 0.0684185 1.57013 2650 
2162 1 -0.0635248 -0.0619428 0.0226772 0.000116 -6.5908 0.117507 -10.2331 2650 
747 1 -0.0644095 -0.062684 0.0244246 0.000116 -1.98206 3.24454e-05 -5.05388 2650 
1314 1 -0.0594925 -0.0571168 0.0348691 4.2e-05 -2.97962 -0.947103 -5.08372 2650 
3331 1 -0.058027 -0.0546672 0.0365488 0.000423 1.52918 0.101596 2.42781 2650 
1239 1 -0.048713 -0.0563998 0.04827 0.000423 1.05767 -0.176586 1.06738 2650 
2612 1 -0.0424393 -0.0601576 0.0542579 0.000116 -1.60835 0.610259 -1.25802 2650 
2954 1 -0.039177 -0.045074 0.0566585 0.000116 -0.999957 -0.80316 -0.691429 2650 
2667 1 -0.0375755 -0.0587718 0.0573675 0.000423 1.91806 -0.951361 1.25632 2650 
3957 1 -0.0369251 -0.0530173 0.057513 0.000656 1.80708 0.381346 1.1602 2650 
1270 1 -0.0374394 -0.0605366 0.0578214 0.000116 -1.18799 -0.416745 -0.769225 2650 
343 1 -0.0362681 -0.0502079 0.0582029 0.000423 2.17842 0.240964 1.35745 2650 
689 1 -0.0334436 -0.0622472 0.0598707 0.000423 1.80387 -0.129938 1.03874 2650 
3531 1 -0.0324606 -0.0499887 0.0604091 0.000423 1.8234 -0.511961 0.979794 2650 
575 1 -0.0287482 -0.0458488 0.0622615 0.000423 1.22166 -1.14252 0.56408 2650 
3276 1 -0.023099 -0.0454589 0.0648958 0.000116 -1.41135 0.708399 -0.502354 2650 
1463 1 -0.0197306 -0.0520568 0.0656784 0.000423 2.29565 -0.178654 0.689642 2650 
3840 1 -0.0128377 -0.0600454 0.0671297 0.000656 2.45356 -0.130398 0.469211 2650 
3785 1 -0.0151321 -0.0586774 0.0672015 0.000116 -3.40385 0.438807 -0.766464 2650 
893 1 -0.0107741 -0.052333 0.0677264 0.000423 1.4997 -0.142966 0.238576 2650 
4133 1 -0.010315 -0.0469063 0.0681074 0.000116 -0.0286124 0.08825 -0.00433341 2650 
4019 1 -0.00608019 -0.0455763 0.0686153 0.000116 2.35219 0.0973902 0.208434 2650 
91 1 -0.00408298 -0.0254222 -0.068763 0.000116 1.48291 -1.7543 -0.0880511 2650 
835 1 -0.00131312 -0.0212213 -0.0688716 0.000116 -2.5498 0.186352 0.0486151 2650 
2066 1 -0.00522608 -0.0138608 -0.0686856 0.000116 -2.83876 0.150262 0.215993 2650 
1207 1 -0.00302103 -0.0138923 -0.0688918 4.2e-05 -3.0161 -0.762133 0.132261 2650 
1210 1 -0.00407278 -0.00918661 -0.0688376 4.2e-05 -3.19339 -0.183312 0.188937 2650 
2211 1 -0.0040126 -0.038923 -0.0682283 0.000656 -2.39746 -0.128307 0.140998 2650 
1912 1 -0.00208293 -0.0384276 -0.0685464 0.000423 -2.37519 -0.0781469 0.0721752 2650 
2546 1 -0.000922598 -0.0237648 -0.0685719 0.000423 -2.59681 -0.285132 0.0349387 2650 
935 1 -0.00715 -0.0195525 -0.0682043 0.000423 -2.18833 -1.30983 0.229401 2650 
367 1 -0.00645233 -0.0184185 -0.0682739 0.000423 -2.35119 -0.192211 0.222197 2650 
1170 1 -0.00569418 -0.0175981 -0.0686484 0.000116 -3.23044 -0.176551 0.267955 2650 
4025 1 -0.00962575 -0.0171076 -0.0682083 0.000116 -3.17066 0.128563 0.447454 2650 
2000 1 -0.00634821 -0.0165361 -0.0682836 0.000423 -0.116367 1.52758 0.0108196 2650 
2103 1 -0.0114789 -0.0214864 -0.0676106 0.000423 -2.67158 -0.0439908 0.453578 2650 
1356 1 -0.0129797 -0.0157898 -0.0673386 0.000423 -3.16198 -0.428482 0.609483 2650 
14 1 -0.0148493 -0.029966 -0.0669511 0.000423 -2.37367 -0.0167826 0.526463 2650 
1587 1 -0.0155529 -0.0248368 -0.0667911 0.000423 -0.517604 -0.68485 0.120529 2650 
420 1 -0.0172882 -0.0120648 -0.0666794 0.000116 -3.0904 -0.23095 0.801257 2650 
4106 1 -0.0174505 -0.0103913 -0.0663207 0.000423 -2.85052 0.477895 0.750038 2650 
2337 1 -0.0155488 -0.00393217 -0.0667921 0.000423 -3.15822 0.230857 0.735216 2650 
1655 1 -0.018339 -0.0441436 -0.0658398 0.000656 -1.39533 0.0711435 0.388654 2650 
2560 1 -0.0194934 -0.0383846 -0.0657492 0.000423 -2.56528 0.15111 0.760558 2650 
1020 1 -0.0186577 -0.0173101 -0.0659912 0.000423 -1.07443 0.294021 0.303773 2650 
3066 1 -0.0204628 -0.0148339 -0.065852 4.2e-05 -1.55098 -0.201364 0.481951 2650 
2052 1 -0.0201938 -0.00787315 -0.0658577 0.000116 -3.06716 -0.178352 0.94048 2650 
400 1 -0.0200297 -0.00760814 -0.0659078 0.000116 -3.07509 -0.153384 0.934533 2650 
4331 1 -0.0235 -0.0419166 -0.0647516 0.000116 -2.14939 -2.03676 0.780067 2650 
632 1 -0.0165315 -0.040654 -0.0648152 0.000116 6.02837 0.725857 1.97695 2650 
355 1 -0.0214678 -0.0249862 -0.0651313 0.000423 -2.62995 0.0401434 0.866855 2650 
2060 1 -0.0224709 -0.0156822 -0.0651159 0.000116 0.404796 2.39615 -0.139692 2650 
3502 1 -0.0217882 -0.00452422 -0.0654116 4.2e-05 -3.1238 -0.092061 0.768821 2650 
3227 1 -0.0241332 -0.0317089 -0.0641915 0.000423 -2.84806 -0.416175 1.07074 2650 
2151 1 -0.025051 -0.00663954 -0.0641675 0.000116 -2.91755 -0.11613 1.13901 2650 
821 1 -0.025871 -0.0337889 -0.063511 0.000423 -2.5247 0.221723 1.02843 2650 
319 1 -0.0274876 -0.0185335 -0.0631621 0.000116 -2.94564 -0.177971 1.28192 2650 
1598 1 -0.0279347 -0.00454477 -0.0629657 0.000116 -1.10143 -0.149164 0.488648 2650 
2465 1 -0.0291837 -0.0443286 -0.0620586 0.000423 -1.87008 0.224473 0.879423 2650 
3204 1 -0.0292244 -0.0263347 -0.0620394 0.000423 -2.38655 0.027468 1.12421 2650 
3328 1 -0.0289219 -0.0255071 -0.062181 0.000423 -2.52946 0.156771 1.17652 2650 
1202 1 -0.0305588 -0.0220781 -0.0618172 4.2e-05 -1.62266 0.0558216 0.802148 2650 
2875 1 -0.0214068 -0.00770848 -0.0618864 0.000423 -2.74947 -0.294184 1.16376 2650 
1002 1 -0.0308119 -0.0340702 -0.0610069 0.000656 -2.68216 -0.276555 1.35464 2650 
152 1 -0.0312228 -0.0229368 -0.0610581 0.000423 -2.61807 0.337765 1.33878 2650 
1712 1 -0.0243892 -0.020845 -0.0612462 0.000116 9.53499 -0.125177 -10.7092 2650 
1943 1 -0.0317878 -0.0110107 -0.0611111 0.000116 5.1863 0.580032 -2.69773 2650 
3875 1 -0.0319078 -0.0314252 -0.0607029 0.000423 -2.21933 0.200125 1.16657 2650 
633 1 -0.0334172 -0.0138544 -0.0602355 0.000116 -2.8253 -0.177233 1.56741 2650 
2862 1 -0.0362414 -0.0280818 -0.0579463 0.000656 -2.41638 0.133654 1.51128 2650 
3391 1 -0.0380529 -0.0190251 -0.0575081 4.2e-05 -2.66864 0.0108824 1.76583 2650 
3040 1 -0.0379309 -0.00246328 -0.0575002 0.000116 -1.55803 -0.164957 1.02778 2650 
3422 1 -0.0387693 -0.025459 -0.0565676 0.000423 -1.69078 -0.1629 1.1588 2650 
3248 1 -0.039587 -0.00843183 -0.0563728 0.000116 -2.62685 -0.190315 1.84467 2650 
1957 1 -0.0408462 -0.0185076 -0.0554672 0.000116 -2.6724 0.081536 1.96796 2650 
4017 1 -0.0405059 -0.00551189 -0.0557162 0.000116 0.120585 -0.246267 -0.0876657 2650 
3522 1 -0.0411455 -0.0273073 -0.0548635 0.000423 -1.27049 -0.265226 0.95282 2650 
1343 1 -0.0410186 -0.0141077 -0.0549584 0.000423 -2.47722 -0.203841 1.84889 2650 
3024 1 -0.0280841 -0.0212068 -0.0545409 0.000116 12.3293 -0.171664 -5.76877 2650 
615 1 -0.0429569 -0.0152566 -0.0538491 0.000116 -2.85762 -0.495089 2.2796 2650 
844 1 -0.0435235 -0.0395568 -0.0533922 0.000116 -1.6936 -0.348974 1.38057 2650 
4320 1 -0.0442335 -0.0335962 -0.0524056 0.000423 -1.80303 0.0325715 1.52186 2650 
1818 1 -0.0457226 -0.0172759 -0.0515215 0.000116 -2.39579 0.134881 2.12613 2650 
2605 1 -0.0464559 -0.0144949 -0.0508613 0.000116 -2.73407 0.0659379 2.49726 2650 
838 1 -0.0465924 -0.0094209 -0.0507363 0.000116 -2.36705 -0.196946 2.17372 2650 
3964 1 -0.0467574 -0.0285064 -0.0501667 0.000423 -1.83097 0.0229828 1.70654 2650 
2247 1 -0.0487467 -0.0277694 -0.048236 0.000423 -1.69279 0.123191 1.71071 2650 
1647 1 -0.0490744 -0.0189229 -0.0484449 4.2e-05 -2.07542 -0.633361 2.10238 2650 
1282 1 -0.0487014 -0.0151759 -0.0487155 0.000116 -2.26565 -0.226209 2.26499 2650 
1363 1 -0.0495448 -0.0176619 -0.0474159 0.000423 -2.22268 -0.39708 2.32248 2650 
4021 1 -0.0496154 -0.000557324 -0.0477842 0.000116 -0.288701 -0.0386897 0.299765 2650 
2051 1 -0.0504325 -0.0228597 -0.0469211 0.000116 -0.644524 1.2549 0.692758 2650 
378 1 -0.0500974 -0.00908716 -0.0468317 0.000423 -1.91254 0.00999815 2.04591 2650 
4250 1 -0.0509625 -0.031246 -0.0463449 0.000116 -0.287898 -0.681141 0.316583 2650 
55 1 -0.0517578 -0.0254123 -0.0449898 0.000423 -1.50337 0.198404 1.72953 2650 
3330 1 -0.051319 -0.0120719 -0.0454896 0.000423 -1.75592 0.458891 1.98094 2650 
3516 1 -0.0513377 -0.00323041 -0.0451182 0.000656 -1.87581 0.452322 2.13439 2650 
1537 1 -0.0521219 -0.00118599 -0.0451499 4.2e-05 -2.58637 0.172556 2.98576 2650 
2578 1 -0.0523044 -0.0269188 -0.0443531 0.000423 -1.64557 0.0687695 1.94058 2650 
3974 1 -0.0525992 -0.0361543 -0.0440031 0.000423 -1.37144 -0.5858 1.63935 2650 
3734 1 -0.0525885 -0.0187454 -0.0436539 0.000656 -2.00591 -0.16631 2.41646 2650 
3960 1 -0.0525596 -0.0124394 -0.0440504 0.000423 -2.05697 -0.44071 2.45431 2650 
146 1 -0.0534337 -0.0193413 -0.042986 0.000423 -1.97635 -0.194771 2.4567 2650 
2738 1 -0.0536593 -0.0134257 -0.0433116 4.2e-05 -2.0279 -0.253113 2.51239 2650 
312 1 -0.0539492 -0.00188047 -0.0428312 0.000116 -1.7909 -0.0550874 2.25578 2650 
3831 1 -0.0547934 -0.014742 -0.0418676 4.2e-05 -4.0162 -1.94512 5.25612 2650 
3718 1 -0.054751 -0.0265468 -0.041923 4.2e-05 2.76889 0.597931 -3.61614 2650 
1813 1 -0.0562687 -0.0381325 -0.0392019 0.000423 -1.59947 -0.283346 2.2958 2650 
482 1 -0.0564249 -0.0225808 -0.0389766 0.000423 -1.07047 0.44138 1.54968 2650 
4177 1 -0.0571521 -0.0373935 -0.0379024 0.000423 -1.50265 -0.270696 2.26581 2650 
2672 1 -0.0585964 -0.0132662 -0.0356289 0.000423 -1.66053 -0.22975 2.73095 2650 
2920 1 -0.0596279 -0.0312437 -0.0344896 0.000116 -1.56103 -0.370042 2.69881 2650 
2256 1 -0.0601233 -0.0447895 -0.0336185 0.000116 -0.337694 -0.0988314 0.603932 2650 
1619 1 -0.0602543 -0.0124143 -0.0333832 0.000116 -1.05044 -0.456754 1.89598 2650 
3426 1 -0.0606258 -0.0354879 -0.0320541 0.000423 -1.38799 -0.671683 2.62519 2650 
1922 1 -0.0607388 -0.0160761 -0.0318395 0.000423 -1.45474 -0.152195 2.77515 2650 
3619 1 -0.0518824 -0.000267138 -0.0325045 4.2e-05 3.54553 -0.131175 -7.04363 2650 
2386 1 -0.0615367 -0.018366 -0.0309558 0.000116 -1.39744 -0.261108 2.77796 2650 
981 1 -0.0618805 -0.0302238 -0.0304304 4.2e-05 1.61104 -0.688018 -3.27606 2650 
3580 1 -0.0617143 -0.018509 -0.0306001 0.000116 -1.46723 -0.556992 2.95911 2650 
4303 1 -0.0618802 -0.0270565 -0.02956 0.000423 -0.844338 -0.0712667 1.76752 2650 
427 1 -0.0622849 -0.0113254 -0.0294213 0.000116 -0.310629 0.268612 0.657602 2650 
843 1 -0.0627432 -0.0441234 -0.0284309 0.000116 -0.790965 0.850505 1.74555 2650 
3196 1 -0.0121276 -0.00596821 -0.027554 0.000423 -1.54784 -0.32624 -3.64784 2650 
1781 1 -0.0635917 -0.0437656 -0.0256718 0.000423 -0.0936245 0.782537 0.231918 2650 
4360 1 -0.0638982 -0.0366281 -0.0257303 0.000116 -1.40484 -0.276613 3.48877 2650 
3337 1 -0.0636278 -0.00863775 -0.0255824 0.000423 -1.19709 -0.188229 2.97736 2650 
4373 1 -0.0644395 -0.00598133 -0.0245511 4.2e-05 -1.14774 -0.125614 3.01249 2650 
3945 1 -0.0641488 -0.000890535 -0.0253009 4.2e-05 2.53665 -0.031858 -6.43152 2650 
786 1 -0.0641197 -0.0112468 -0.0243233 0.000423 -1.12959 -0.224877 2.97775 2650 
2421 1 -0.0645476 -0.0324834 -0.0224683 0.000656 -0.960511 0.102683 2.75938 2650 
1185 1 -0.0462995 -0.0122448 -0.0228924 0.000116 -6.8617 -0.82154 -3.42351 2650 
2112 1 -0.0651979 -0.0254364 -0.0212648 0.000423 -0.874397 -0.365992 2.6809 2650 
518 1 -0.0656079 -0.00889391 -0.0209911 0.000116 -0.982106 -0.234636 3.06958 2650 
1945 1 -0.065829 -0.00911709 -0.020287 0.000116 -0.892932 -0.135526 2.89746 2650 
822 1 -0.0657607 -0.0297037 -0.0194547 0.000423 -0.734308 -0.00959886 2.48211 2650 
3349 1 -0.0205528 -0.00384991 -0.0175946 0.000116 -2.9368 -0.0861888 -2.54399 2650 
606 1 -0.000183 0.00334901 -0.016592 0.000116 0 -0.011753 0 2650 
188 1 -0.000443864 0.0084124 -0.016821 0.000116 -0.0156058 0.0716121 0.00169132 2650 
2713 1 -0.000763 0.01032 -0.016767 0.000116 0 -0.011753 0 2650 
2599 1 -0.0668912 -0.0338454 -0.0164498 0.000116 -0.387261 -0.815023 1.57475 2650 
736 1 -0.003429 0.00127401 -0.016474 0.000116 0 -0.011753 0 2650 
150 1 -0.00260716 0.000960375 -0.0162262 0.000423 -0.00913371 0.00501626 0.00203877 2650 
676 1 -0.00237422 0.00193281 -0.0160372 0.000423 -0.0130706 -0.00428427 0.0172903 2650 
1679 1 -0.00363365 0.00272236 -0.0159531 0.000423 -0.000267589 -0.00703629 -0.00433961 2650 
2013 1 -0.00276683 0.00292555 -0.0161525 0.000423 0.00298908 -0.00809762 0.00112683 2650 
3589 1 -0.00356939 0.00452838 -0.0162514 0.000116 0.155503 0.064687 -0.0402711 2650 
2301 1 -0.004222 0.00512201 -0.016305 4.2e-05 0 -0.011753 0 2650 
3121 1 -0.00368095 0.00504644 -0.0160542 0.000423 0.0295457 0.00139416 -0.0105356 2650 
1388 1 -0.000309332 0.00517555 -0.0162251 0.000116 -0.039288 0.0021603 0.0169103 2650 
302 1 -0.000587485 0.00616085 -0.0164318 0.000116 0.0171051 0.0203877 0.0103663 2650 
1219 1 -0.000871223 0.00667937 -0.0158802 0.000656 0.0133734 0.0239605 0.00857101 2650 
3934 1 -0.001977 0.00811101 -0.016218 0.000116 0 -0.011753 0 2650 
142 1 -0.00329693 0.0227306 -0.016228 0.000423 -0.0724726 0.0432766 -0.000425408 2650 
913 1 -0.000803812 0.0229122 -0.0157941 0.000423 -0.0131935 0.0940792 0.0439723 2650 
4245 1 -0.000380068 0.0386605 -0.0164333 0.000116 -0.131082 0.152483 0.00432583 2650 
1357 1 -0.00383408 0.0458926 -0.0159621 0.000423 0.0681058 0.285169 -0.0155587 2650 
623 1 -0.00685658 0.000627897 -0.0150022 0.000116 -0.00477071 -0.00938024 -0.0420845 2650 
1991 1 -0.00489427 0.00055836 -0.015378 0.000656 -0.0197706 -0.00214867 0.00868857 2650 
222 1 -0.00195423 0.000588443 -0.015079 0.000656 -0.00713779 -0.040298 -0.0148088 2650 
2922 1 -0.00639505 0.00172642 -0.0153493 0.000116 -0.0108987 -0.0113206 0.0393947 2650 
3239 1 -0.00280129 0.00173478 -0.0157631 0.000116 -0.0332144 0.00168872 0.00188105 2650 
2399 1 -0.002418 0.00356301 -0.015541 0.000116 0 -0.011753 0 2650 
2283 1 -0.00164581 0.0040312 -0.015206 0.000116 -0.0318858 -0.01081 -0.0228231 2650 
2313 1 -0.00500167 0.00520892 -0.0153141 0.000656 0.00856952 0.0288131 0.00982472 2650 
2438 1 -0.00573886 0.00672013 -0.015242 0.000423 0.00192492 -0.00355692 -0.0258764 2650 
978 1 -0.00520368 0.00689602 -0.015453 0.000116 0.015313 -0.00383775 -0.0151954 2650 
1620 1 -0.00398734 0.00722362 -0.0155867 0.000116 0.0529387 0.0514306 -0.00503745 2650 
2969 1 -0.00128924 0.00771227 -0.0150952 0.000656 -0.00819712 0.0280435 0.000260256 2650 
1483 1 -0.000301987 0.00815874 -0.0152005 0.000423 -0.0010087 0.0213686 -0.00667363 2650 
86 1 -0.002064 0.00936701 -0.015055 0.000116 0 -0.011753 0 2650 
3177 1 -0.001068 0.00916701 -0.015412 4.2e-05 0 -0.011753 0 2650 
1228 1 -0.00141398 0.00943368 -0.0150026 0.000423 -0.00123313 -0.0118667 -0.000623591 2650 
3830 1 -0.006879 0.00966301 -0.015411 4.2e-05 0 -0.011753 0 2650 
1617 1 -0.00403088 0.00959294 -0.0156344 0.000116 0.0304875 0.00968505 -0.0492471 2650 
371 1 -0.000470107 0.010082 -0.0151675 0.000423 0.000724313 -0.00601752 -0.0061741 2650 
938 1 -0.000869 0.010573 -0.015416 0.000116 0 -0.011753 0 2650 
568 1 -0.00374305 0.0161689 -0.0157185 0.000423 0.0646767 0.0324089 0.0265592 2650 
980 1 -0.0377262 -0.00424158 -0.014477 4.2e-05 -5.84223 -0.107892 -2.24189 2650 
2793 1 -0.000581253 -0.00173383 -0.01461 0.000423 -0.196801 0.282111 -0.308846 2650 
2827 1 -0.00474353 -0.000809193 -0.0142823 0.000116 -0.0201753 -0.0226203 0.0017234 2650 
1053 1 -0.007469 -0.000278988 -0.014946 0.000116 0 -0.011753 0 2650 
2817 1 -0.00197813 -0.00039985 -0.0145229 0.000116 0.0100645 -0.056664 0.00630574 2650 
2332 1 -0.00411367 0.000272887 -0.0143917 0.000423 -0.0114447 -0.00779769 0.00753018 2650 
3637 1 -0.003635 0.00199857 -0.0149723 0.000423 -0.00927015 0.0142513 -0.0137177 2650 
220 1 -0.003649 0.00262601 -0.014897 4.2e-05 0 -0.011753 0 2650 
3365 1 -0.002315 0.00598901 -0.014552 0.000116 0 -0.011753 0 2650 
1618 1 -0.00801999 0.00663812 -0.0147021 0.000116 -0.0222988 0.059375 0.0201275 2650 
3950 1 -0.00670758 0.00664651 -0.0143282 0.000656 -0.0401516 -0.0144037 -0.0334096 2650 
4190 1 -0.0081759 0.00856459 -0.0143034 0.000423 -0.009489 7.8582e-05 0.00632979 2650 
508 1 -0.00853563 0.00808725 -0.0143199 0.000116 -0.0609474 0.0130298 0.0475554 2650 
963 1 -0.00520733 0.0084306 -0.0144554 0.000116 -0.029376 -0.065298 -0.0412241 2650 
581 1 -0.00559425 0.00884565 -0.0142682 0.000423 -0.000593495 -0.0101803 -0.00423903 2650 
3669 1 -0.000296574 0.0107866 -0.0145907 0.000423 0.00220454 -0.00743356 -0.00383523 2650 
3644 1 -0.000854622 0.0122775 -0.014308 0.000423 -0.00432743 0.00711996 -0.0325914 2650 
3216 1 -0.00451923 0.0242911 -0.014526 0.000423 -0.00544148 0.107266 0.0543995 2650 
3043 1 -0.000831681 -0.00141092 -0.0136944 0.000116 -0.16517 0.282697 -0.415627 2650 
509 1 -0.00727355 -0.000530003 -0.0136317 0.000116 -0.00521486 0.00944493 -0.0325939 2650 
3733 1 -0.00610766 0.000833303 -0.0140036 0.000656 -0.0234074 0.0166409 0.0163514 2650 
2512 1 -0.0097222 0.00464605 -0.013458 0.000116 0.002514 -0.0160812 -0.0313025 2650 
1171 1 -0.00844478 0.00448408 -0.0136433 0.000116 -0.0146011 -0.0168948 -0.0399555 2650 
3587 1 -0.00579802 0.00417812 -0.0140057 0.000116 -0.0152422 -0.0151231 -0.00566973 2650 
4165 1 -0.00516991 0.00461976 -0.0138813 0.000656 -0.000243806 -0.0320728 0.00848336 2650 
234 1 -0.00163086 0.00407 -0.0140484 0.000423 0.0351287 -0.0167305 0.0264562 2650 
4296 1 -0.00296256 0.00595749 -0.0140696 0.000423 -0.0431702 0.0421068 0.0473826 2650 
1584 1 -0.00135083 0.00697581 -0.013542 0.000423 -0.00963006 0.0395817 0.04039 2650 
2322 1 -0.00812619 0.00740518 -0.0136567 0.000656 -0.0108707 -0.010103 0.00337555 2650 
1288 1 -0.002467 0.00729201 -0.014044 0.000116 0 -0.011753 0 2650 
4227 1 -0.000196507 0.00725313 -0.0141546 0.000116 -0.00921828 -0.0161692 0.0154311 2650 
3515 1 -0.00698903 0.00797843 -0.0141795 0.000656 -0.0103794 -0.0121819 0.00307219 2650 
2222 1 -0.000346499 0.00811727 -0.014149 0.000423 -0.00549102 -0.00568171 -0.00117535 2650 
1827 1 -0.00592929 0.00932037 -0.0134778 0.000116 -0.0386186 0.00754243 -0.0442276 2650 
1476 1 -0.006941 0.010092 -0.013435 0.000423 0 -0.011753 0 2650 
233 1 -0.00478452 0.00996683 -0.0140296 0.000423 0.000342891 -0.00976437 -0.0328705 2650 
1986 1 -0.003055 0.00955917 -0.0139955 0.000656 0.00762539 0.0149956 0.0116892 2650 
4257 1 -0.00840483 0.0107028 -0.0141347 0.000116 0.0101268 -0.0416798 0.0036163 2650 
3007 1 -0.00107509 0.0114901 -0.0134628 0.000423 -0.0135196 -0.00505473 -0.0280609 2650 
1409 1 -0.00044 0.011072 -0.013868 0.000116 0 -0.011753 0 2650 
3632 1 -0.00933604 0.012788 -0.0136273 0.000423 -0.0216519 0.000467483 0.0139725 2650 
2467 1 -0.00166682 0.0291146 -0.0141647 0.000423 0.0301791 0.103437 0.0421276 2650 
3573 1 -0.00716635 0.0347023 -0.0138329 0.000116 0.196545 -0.226716 -0.153339 2650 
330 1 -0.00699697 -0.00287609 -0.0129065 4.2e-05 -0.0696064 -0.0147686 0.0345761 2650 
4097 1 -0.00867814 -0.00226183 -0.0129407 0.000423 -0.0116536 0.00229875 0.0371095 2650 
800 1 -0.00702188 -0.00186497 -0.0127918 0.000423 0.0734004 0.0256016 0.0971795 2650 
1468 1 -0.00419882 -0.00160186 -0.0131584 0.000423 -0.0197001 -0.0470204 -0.0326717 2650 
3153 1 -0.00132691 -0.00217723 -0.0132282 0.000116 -0.0842498 -0.0374178 0.0430189 2650 
4126 1 -0.00434966 -2.3545e-06 -0.0133284 0.000116 -0.0261531 0.0084042 0.00402279 2650 
3551 1 -0.00622262 0.000175646 -0.0131522 0.000423 -0.0156159 0.00739945 0.00324067 2650 
541 1 -0.00614842 0.000601808 -0.0128011 4.2e-05 -0.0143735 0.00954058 0.00936495 2650 
2525 1 -0.004063 0.00151901 -0.013231 4.2e-05 0 -0.011753 0 2650 
2619 1 -0.005851 0.00233501 -0.012854 0.000116 0 -0.011753 0 2650 
2609 1 -0.00886 0.00305901 -0.013248 0.000116 0 -0.011753 0 2650 
3880 1 -0.010277 0.00325101 -0.012913 0.000423 0 -0.011753 0 2650 
3645 1 -0.00540722 0.00336143 -0.0127434 0.000423 -0.0357151 -0.0039173 0.0164321 2650 
3917 1 -0.003984 0.00382001 -0.012703 0.000116 0 -0.011753 0 2650 
2918 1 -0.00764251 0.0045873 -0.0131565 0.000116 -0.0132236 0.0205789 -0.0380223 2650 
1032 1 -0.00755211 0.00405953 -0.0128733 0.000423 -0.0173367 -0.00904293 -0.0556269 2650 
2912 1 -0.00586971 0.00459532 -0.0130146 0.000116 0.0344903 0.00459865 -0.0369002 2650 
3322 1 -0.00373061 0.00439856 -0.0132674 0.000423 0.0155165 0.0110838 0.0251988 2650 
2059 1 -0.003583 0.00402901 -0.012756 0.000116 0 -0.011753 0 2650 
450 1 -0.00656893 0.00481894 -0.0133168 0.000656 0.0112424 0.0469319 0.00733295 2650 
2596 1 -0.00884457 0.00568417 -0.0133677 0.000116 -0.0442582 -0.0431064 0.0384975 2650 
104 1 -0.00288258 0.0056647 -0.0133408 4.2e-05 -0.00674979 0.0150481 0.0116551 2650 
4078 1 -0.00883621 0.00638517 -0.0127264 0.000423 -0.0196946 -0.00953845 0.00130892 2650 
2913 1 -0.00727412 0.00695996 -0.0130595 0.000116 -0.028239 -0.0119827 -0.0130286 2650 
1427 1 -0.002948 0.00636001 -0.013376 4.2e-05 0 -0.011753 0 2650 
1237 1 -0.0101726 0.00762638 -0.0128582 0.000423 0.0229951 -0.00489968 0.00418074 2650 
3259 1 -0.00861258 0.00766884 -0.0130859 0.000116 -0.0089878 -0.00810535 0.00538998 2650 
1519 1 -0.00248283 0.00770121 -0.0127893 0.000116 -0.0494896 0.0341374 0.0501115 2650 
1795 1 -0.00875837 0.00835795 -0.0129686 0.000423 0.00165908 -0.0118589 -0.000959055 2650 
1769 1 -0.00624346 0.00863289 -0.0133163 0.000656 -0.0139492 0.00030421 -0.000268195 2650 
1250 1 -0.00773527 0.00895959 -0.0128868 0.000423 -0.0109693 -0.0170514 -0.0143142 2650 
205 1 -0.000744 0.00907601 -0.01334 0.000116 0 -0.011753 0 2650 
2483 1 -0.0090961 0.00962615 -0.0132211 0.000116 0.00258646 -0.0218162 0.0129531 2650 
949 1 -0.00632406 0.0106977 -0.0126916 0.000116 -0.0176518 0.0277962 -0.00593252 2650 
1775 1 -0.00822729 0.0118232 -0.0130402 0.000423 -7.29146e-05 -0.011186 -0.000346901 2650 
959 1 -0.00682502 0.0120804 -0.0127153 0.000116 -0.0723779 0.0623805 -0.0339909 2650 
478 1 -0.00704029 0.01477 -0.0133852 0.000423 -0.0255767 0.012458 -0.051203 2650 
3932 1 -0.00508389 0.0200197 -0.0132637 0.000116 0.03152 0.0411719 0.0597923 2650 
2873 1 -0.067479 -0.0344617 -0.0122283 0.000423 -0.490046 -0.0464534 2.7042 2650 
3946 1 -0.0678208 -0.0244114 -0.0124718 4.2e-05 1.91009 2.30868 -10.387 2650 
545 1 -0.002328 -0.00245599 -0.012432 4.2e-05 0 -0.011753 0 2650 
2172 1 -0.00887128 -0.00166756 -0.0121223 0.000116 0.0554355 0.00150652 -0.0523356 2650 
2468 1 -0.003167 -0.00208299 -0.012131 0.000423 0 -0.011753 0 2650 
1763 1 -0.001143 -0.00179499 -0.012442 0.000656 0 -0.011753 0 2650 
2645 1 -0.00568208 -0.00109545 -0.0120815 0.000656 -0.0339684 -0.013594 0.0452752 2650 
3191 1 -0.00695408 -0.000319029 -0.0125262 0.000656 -0.0194676 0.00208869 -0.00166526 2650 
756 1 -0.00628257 -0.000570476 -0.0118783 0.000116 0.0784163 0.0334609 0.00356552 2650 
1422 1 -0.003881 5.10125e-05 -0.012349 4.2e-05 0 -0.011753 0 2650 
388 1 -0.00745777 0.00136928 -0.0122082 0.000116 0.0212466 0.0335067 0.0250458 2650 
3201 1 -0.00622103 0.00115988 -0.0124372 0.000423 -0.00608722 0.0216696 0.0089772 2650 
1799 1 -0.0032313 0.000859772 -0.0120573 0.000423 7.10678e-05 -0.0118308 4.63239e-05 2650 
3389 1 -0.010415 0.00231701 -0.012026 0.000116 0 -0.011753 0 2650 
3956 1 -0.00903293 0.00172643 -0.0123048 0.000656 -0.000640959 -0.0104529 -0.000368355 2650 
2285 1 -0.011775 0.00384469 -0.0118639 0.000116 0.0175306 0.0103543 0.003719 2650 
411 1 -0.0103837 0.00460675 -0.0120895 0.000116 -0.00787832 -0.00657823 -8.20909e-05 2650 
3826 1 -0.009208 0.00421201 -0.012552 0.000116 0 -0.011753 0 2650 
708 1 -0.00275955 0.00456342 -0.0121807 0.000423 -0.00318183 -0.00599768 -0.010405 2650 
3380 1 -0.00221917 0.0045305 -0.0125369 0.000116 -0.00133046 -0.0120531 0.0302183 2650 
2194 1 -0.00233375 0.00464512 -0.0124933 4.2e-05 0.00491046 0.00111596 0.00228026 2650 
2957 1 -0.00185406 0.00414033 -0.0122588 4.2e-05 0.0205169 0.0248349 -0.000218849 2650 
3316 1 -0.008979 0.00496501 -0.012376 0.000423 0 -0.011753 0 2650 
1261 1 -0.00744765 0.00496351 -0.0124223 0.000423 -0.000148786 -0.00207045 -0.0014312 2650 
3362 1 -0.00266645 0.0051238 -0.0122629 0.000116 0.000350619 -0.00253681 -0.00404217 2650 
2219 1 -0.00374442 0.0058977 -0.0125749 0.000423 0.0573797 0.046564 0.0166916 2650 
3446 1 -0.002592 0.00597201 -0.012627 0.000423 0 -0.011753 0 2650 
3030 1 -0.001189 0.00647501 -0.012596 0.000116 0 -0.011753 0 2650 
445 1 -0.00956701 0.00725862 -0.0119877 0.000656 -0.0152041 0.0239941 -0.0412097 2650 
4318 1 -0.00857336 0.00771934 -0.0123437 0.000423 -0.00589465 -0.00768269 0.00318441 2650 
2344 1 -0.00102635 0.00765476 -0.0118468 0.000423 0.00597873 -0.023338 -0.0226217 2650 
3847 1 -0.00966352 0.00858275 -0.0124132 0.000656 0.00296919 -0.00343098 -0.00030598 2650 
3173 1 -0.004958 0.00860401 -0.012321 4.2e-05 0 -0.011753 0 2650 
1495 1 -0.004483 0.00794301 -0.012591 0.000116 0 -0.011753 0 2650 
3684 1 -0.00434003 0.00824152 -0.0123897 0.000116 0.00413104 -0.0230128 -0.00941473 2650 
4002 1 -0.000443 0.00863601 -0.01223 0.000116 0 -0.011753 0 2650 
4179 1 -0.00709018 0.00903535 -0.0121043 0.000423 -0.00767678 -0.0221048 -0.00852388 2650 
2630 1 -0.001036 0.00881201 -0.012074 4.2e-05 0 -0.011753 0 2650 
289 1 -0.00124619 0.00976241 -0.0121454 0.000116 -0.0188061 -0.000940224 -0.0594549 2650 
1423 1 -0.00145 0.010292 -0.012526 4.2e-05 0 -0.011753 0 2650 
3106 1 -0.0070813 0.0117111 -0.0121814 0.000423 -0.042507 0.0242048 -0.0146805 2650 
1802 1 -0.00416611 0.0124607 -0.0119915 0.000423 0.00500259 -0.000364755 -0.0111755 2650 
2205 1 -0.00510209 0.013276 -0.0120182 0.000656 -0.00206311 0.000112593 -0.00429342 2650 
1143 1 -0.000867271 0.0143893 -0.0124806 0.000423 0.0070315 0.0110531 -0.00616027 2650 
675 1 -0.00507136 0.0209148 -0.0124154 0.000423 -0.0171714 0.0807922 0.0289201 2650 
1979 1 -0.00742614 0.0231077 -0.0118884 4.2e-05 -0.060479 0.115177 0.0648972 2650 
2179 1 -0.0112579 0.0452563 -0.0123543 0.000116 -0.76016 -0.492651 0.571991 2650 
2413 1 -0.00860081 -0.00272637 -0.0115165 4.2e-05 -0.0826713 -0.0311639 0.0536157 2650 
3505 1 -0.006952 -0.00278699 -0.011235 4.2e-05 0 -0.011753 0 2650 
1022 1 -0.002093 -0.00291699 -0.011454 0.000423 0 -0.011753 0 2650 
440 1 -0.00061 -0.00148499 -0.011485 4.2e-05 0 -0.011753 0 2650 
2939 1 -0.00935614 0.000164395 -0.0114151 0.000116 -0.00341769 -0.0275913 0.0148239 2650 
3200 1 -0.00823883 0.000303799 -0.0114598 0.000423 -0.0275514 -0.0115593 0.0194145 2650 
1063 1 -0.009531 0.00224101 -0.011683 0.000116 0 -0.011753 0 2650 
3894 1 -0.005583 0.00168601 -0.011098 0.000116 0 -0.011753 0 2650 
3477 1 -0.010042 0.00279714 -0.0113893 0.000116 0.0616358 -0.0139442 -0.0219299 2650 
1595 1 -0.00789615 0.00289177 -0.011394 0.000423 -0.0081111 0.00198047 0.0261702 2650 
2062 1 -0.00610821 0.00314443 -0.0113824 0.000116 0.0129099 -0.0677536 -0.0535012 2650 
2279 1 -0.0119755 0.00364618 -0.0111311 0.000116 -0.0158908 0.0502304 0.00803902 2650 
1125 1 -0.00565084 0.00318651 -0.0118084 0.000423 -0.0456429 0.0111646 0.0284182 2650 
1192 1 -0.00492943 0.00341741 -0.0116844 0.000116 -0.0160738 0.0171838 -0.0228619 2650 
2294 1 -0.004894 0.00392201 -0.011565 0.000116 0 -0.011753 0 2650 
878 1 -0.00391279 0.00456886 -0.0112105 4.2e-05 -0.000281569 -0.00211859 -0.00050102 2650 
2474 1 -0.0025743 0.00396921 -0.0112747 0.000423 -0.00380852 -0.00865862 -0.00797376 2650 
1822 1 -0.00817564 0.00494445 -0.0111597 0.000116 -0.0361035 -0.0195415 0.0016013 2650 
3221 1 -0.00766756 0.00516585 -0.0112878 0.000423 -0.0383607 -5.03589e-05 -0.0190963 2650 
1758 1 -0.00201 0.00523601 -0.01144 4.2e-05 0 -0.011753 0 2650 
1215 1 -0.0116251 0.00553562 -0.0111874 0.000656 -0.0111274 -0.00319459 -0.00262745 2650 
2409 1 -0.002586 0.00630601 -0.011527 4.2e-05 0 -0.011753 0 2650 
3283 1 -0.00131524 0.00589448 -0.0112547 4.2e-05 0.0397515 0.0433617 -0.0233311 2650 
4310 1 -0.00031838 0.00568992 -0.0117002 0.000423 0.011252 0.0218425 0.101284 2650 
763 1 -0.0052976 0.00687444 -0.0110833 4.2e-05 -0.0107376 -0.0192397 -0.014763 2650 
4027 1 -0.003218 0.00636701 -0.011075 0.000116 0 -0.011753 0 2650 
3456 1 -0.00359884 0.0070436 -0.011233 0.000423 -0.000997028 -0.0111859 -0.00366568 2650 
89 1 -0.0091755 0.00720098 -0.01116 0.000116 -0.0422672 0.00513725 0.00569209 2650 
2338 1 -0.00857688 0.00711842 -0.0111629 0.000423 -0.0683967 0.00307149 -0.0306187 2650 
713 1 -0.007587 0.00760635 -0.0113422 0.000423 -0.0119296 0.00314301 0.00578085 2650 
2547 1 -0.0115741 0.00860928 -0.0114319 0.000423 -0.0234482 0.0189122 0.0282939 2650 
2798 1 -0.0083824 0.00816305 -0.0115594 0.000423 0.0168646 0.022512 -0.0112906 2650 