ITEM: TIMESTEP
6057678
ITEM: NUMBER OF ATOMS
4349
ITEM: BOX BOUNDS ff ff ff
-0.15 0.15
-0.15 0.06
-0.15 0.15
ITEM: ATOMS id type x y z radius vx vy vz density 
1805 1 -0.00867745 -0.0536101 -0.0680268 0.000423 -1.87517 -0.0754397 0.239195 2650 
3088 1 -0.00177573 -0.0524327 -0.0685551 0.000423 -2.9359 -0.399102 0.0760465 2650 
1231 1 -0.00589024 -0.0460801 -0.0683246 0.000423 -1.24322 0.0681926 0.107177 2650 
1961 1 -0.0146779 -0.0626681 -0.0673009 0.000116 -0.530364 0.983389 0.162139 2650 
200 1 -0.0130289 -0.0594793 -0.0676408 0.000116 10.4385 0.55568 -2.01065 2650 
1670 1 -0.011941 -0.051935 -0.0675305 0.000423 -1.95148 0.147746 0.345068 2650 
4074 1 -0.0164916 -0.0571778 -0.0665656 0.000423 -3.49913 0.647106 0.866906 2650 
854 1 -0.0125386 -0.0503048 -0.0663238 0.000116 5.56699 -6.95319 -0.984434 2650 
3425 1 -0.0242022 -0.062377 -0.0641657 0.000423 6.58049 1.25811e-07 -2.48204 2650 
3613 1 -0.0253823 -0.048099 -0.0641167 4.2e-05 -3.48786 -0.00691525 1.38076 2650 
3577 1 -0.0316966 -0.0542707 -0.0611584 0.000116 -2.60985 -0.562312 1.35261 2650 
2457 1 -0.0313164 -0.0488278 -0.0610102 0.000423 -2.62293 -0.0276614 1.34634 2650 
4250 1 -0.0315817 -0.0479496 -0.0612178 0.000116 2.71075 -0.588815 -1.39845 2650 
4139 1 -0.0412487 -0.052219 -0.0551685 0.000116 -0.97808 0.253089 0.731296 2650 
2855 1 -0.0466618 -0.0551643 -0.0507729 4.2e-05 -1.05008 0.0755311 0.965051 2650 
4331 1 -0.0488179 -0.0520097 -0.0485987 0.000116 -0.395305 0.798571 0.397089 2650 
3308 1 -0.05383 -0.0611663 -0.0424887 0.000423 -1.58988 0.0352049 2.01425 2650 
2256 1 -0.0557866 -0.056422 -0.0404089 0.000116 0.323788 -0.623875 -0.447007 2650 
981 1 -0.0572232 -0.0542289 -0.0382489 4.2e-05 -0.636677 -1.19134 -2.67288 2650 
19 1 -0.0612188 -0.0588963 -0.0309064 0.000423 0.42847 0.138128 -0.848704 2650 
1417 1 -0.0658023 -0.0554693 -0.0203736 0.000116 -0.652029 -0.0254248 2.10591 2650 
2395 1 -0.0659593 -0.0474109 -0.0198593 0.000116 1.48526 -0.290448 -4.93304 2650 
3692 1 -0.0665886 -0.0485515 -0.0176347 0.000116 0.138622 0.236078 -0.523438 2650 
649 1 -0.0671092 -0.0588082 -0.0155363 0.000116 0.33106 -0.0704023 -1.43002 2650 
2599 1 -0.0678104 -0.0506264 -0.0121151 0.000116 0.200074 -0.782498 -1.11985 2650 
3831 1 -0.0685805 -0.045722 -0.00720576 4.2e-05 -0.0678184 -1.37198 0.645459 2650 
4316 1 -0.0684006 -0.0536329 -0.00492988 0.000423 -0.0405212 0.425514 0.562219 2650 
3073 1 -0.0681953 -0.0573357 0.0102279 4.2e-05 -1.87122 0.771538 -12.4766 2650 
2954 1 -0.0631852 -0.0604265 0.0111074 0.000116 -4.13312 0.96789 -12.1216 2650 
2612 1 -0.0671833 -0.0464807 0.0152127 0.000116 -0.450947 0.561342 -1.9915 2650 
868 1 -0.0642886 -0.0608616 0.0247386 0.000116 -2.43318 0.269151 -6.32315 2650 
3426 1 -0.0612049 -0.0492644 0.0309339 0.000423 1.23536 -0.500448 2.44424 2650 
3348 1 -0.0486822 -0.0618261 0.044425 0.000116 -2.53133 0.285493 -3.53179 2650 
3069 1 -0.03908 -0.0591396 0.0535399 4.2e-05 -8.70188 0.482608 2.47939 2650 
2790 1 -0.0373719 -0.0513602 0.0575004 0.000423 2.03273 0.0438207 1.32116 2650 
1208 1 -0.0369425 -0.0487617 0.0582277 4.2e-05 0.992833 0.327818 0.629902 2650 
689 1 -0.0348443 -0.062377 0.0588074 0.000423 -3.78285 -5.34973e-05 -1.52736 2650 
1060 1 -0.0324722 -0.054739 0.0607501 0.000116 2.72917 -0.616834 1.4588 2650 
287 1 -0.0300832 -0.0626397 0.0615637 0.000116 -13.4046 -0.0204974 -5.37161 2650 
107 1 -0.0279531 -0.056115 0.0630384 4.2e-05 -9.73616 1.88245 -4.3173 2650 
921 1 -0.0222223 -0.0479491 0.0648777 0.000423 2.29623 -0.215638 0.78652 2650 
3038 1 -0.0210652 -0.0605147 0.0655841 0.000116 -0.876094 0.0477708 -0.281396 2650 
1239 1 -0.0192228 -0.0599375 0.0658288 0.000423 1.44241 -0.128024 0.421201 2650 
1721 1 -0.0181629 -0.0550224 0.0664465 0.000116 -3.15716 0.156921 -0.862997 2650 
575 1 -0.00590874 -0.0621045 0.0683229 0.000423 0.198731 -0.136958 0.0168261 2650 
2667 1 -0.000985459 -0.0557578 0.068571 0.000423 1.47671 0.372462 0.0212224 2650 
2160 1 -0.00762525 -0.050463 0.0684608 0.000116 0.233589 0.561461 0.0260174 2650 
3331 1 -0.00882528 -0.0474195 0.0680078 0.000423 2.51377 0.467954 0.326209 2650 
1716 1 -0.00376827 -0.0151167 -0.068781 0.000116 -3.42665 -0.0940071 0.187734 2650 
2042 1 -0.000863152 -0.00576522 -0.0688787 0.000116 -3.21695 -0.133106 0.0403131 2650 
115 1 -0.00435643 -0.0403263 -0.0682072 0.000656 -2.54619 0.197477 0.162626 2650 
486 1 -0.00180062 -0.0387547 -0.0685544 0.000423 -1.58806 -0.56133 0.0417113 2650 
3005 1 -0.00692904 -0.0342803 -0.0682271 0.000423 -1.71616 -0.811452 0.17429 2650 
4307 1 -0.00669226 -0.0322665 -0.0682508 0.000423 -2.52314 -0.0369337 0.247407 2650 
1798 1 -0.00584719 -0.0321982 -0.0683283 0.000423 -2.47803 -0.281238 0.212052 2650 
2663 1 -0.00906653 -0.0281315 -0.0679761 0.000423 -2.69236 0.247308 0.359102 2650 
1560 1 -0.00548437 -0.0280302 -0.0683584 0.000423 -2.65088 -0.0986558 0.212679 2650 
1116 1 -0.00770307 -0.0266999 -0.0681441 0.000423 -2.46127 0.0084582 0.278225 2650 
3054 1 -0.0064814 -0.0220991 -0.0685785 0.000116 -2.34698 0.326128 0.221815 2650 
323 1 -0.00781859 -0.0184785 -0.0685133 4.2e-05 -3.2046 -0.12951 0.365702 2650 
3381 1 -0.00863812 -0.0164881 -0.0683404 0.000116 -3.17775 0.151583 0.401662 2650 
2132 1 -0.00450668 -0.0154681 -0.0684299 0.000423 -3.43775 -0.247732 0.226405 2650 
2601 1 -0.00851835 -0.0128257 -0.0683554 0.000116 -3.41695 0.161868 0.425816 2650 
416 1 -0.00760973 -0.013373 -0.0684625 0.000116 -3.23452 0.100595 0.359523 2650 
670 1 -0.00238949 -0.0133001 -0.0683045 0.000656 -3.20698 -0.202169 0.112189 2650 
432 1 -0.0141137 -0.039617 -0.0674982 4.2e-05 -0.395058 -5.27722 0.0826054 2650 
1256 1 -0.0134624 -0.0330851 -0.0672437 0.000423 -2.61431 -0.765397 0.523391 2650 
4142 1 -0.0120356 -0.0323451 -0.0678245 0.000116 -2.60628 -0.249311 0.462491 2650 
1784 1 -0.0141501 -0.0292531 -0.0671023 0.000423 -2.06107 -0.411246 0.434624 2650 
2055 1 -0.0120158 -0.0245794 -0.067828 0.000116 -2.34826 0.315489 0.415994 2650 
358 1 -0.0132869 -0.0242944 -0.0672786 0.000423 -2.41527 -0.0372106 0.476992 2650 
476 1 -0.0122248 -0.0237164 -0.0674797 0.000423 -2.73096 0.275587 0.494748 2650 
1475 1 -0.0141332 -0.0229397 -0.0671059 0.000423 -2.47043 0.172332 0.5203 2650 
3095 1 -0.0130575 -0.0234803 -0.0673235 0.000423 -2.41148 -0.0354176 0.467709 2650 
671 1 -0.011191 -0.0233689 -0.0674238 0.000656 -2.68637 0.193983 0.445883 2650 
2651 1 -0.0130941 -0.0188482 -0.0673164 0.000423 -1.46801 0.536582 0.285551 2650 
3725 1 -0.0136145 -0.00421799 -0.0676007 4.2e-05 -2.89216 -0.253328 0.582469 2650 
2000 1 -0.0128455 -0.000639322 -0.0673642 0.000423 -0.611602 0.196726 0.116625 2650 
3547 1 -0.0148474 -0.0349015 -0.0669515 0.000423 -2.06385 -0.146027 0.457686 2650 
3366 1 -0.0155772 -0.0342587 -0.0670997 0.000116 -1.21164 -0.381153 0.281283 2650 
2123 1 -0.0151622 -0.0277393 -0.0668809 0.000423 -2.59477 -0.136495 0.588246 2650 
1213 1 -0.0139377 -0.0273551 -0.06691 0.000656 -2.55099 -0.165172 0.531386 2650 
235 1 -0.0158973 -0.0236842 -0.06671 0.000423 -2.07545 0.158369 0.49459 2650 
2705 1 -0.0185271 -0.00479595 -0.0663458 0.000116 -2.53234 -0.22081 0.707157 2650 
3540 1 -0.0186742 -0.0421562 -0.0659865 0.000423 -0.07985 0.0596447 0.0225975 2650 
3652 1 -0.0185582 -0.0348268 -0.0660193 0.000423 -1.46898 0.505147 0.412935 2650 
1104 1 -0.017278 -0.0288863 -0.0661262 0.000656 -2.13983 0.00957606 0.559111 2650 
341 1 -0.0179762 -0.0236237 -0.0659398 0.000656 -2.74776 -0.299595 0.749083 2650 
4132 1 -0.0199243 -0.0196924 -0.0659397 0.000116 -3.06712 -0.107205 0.926761 2650 
3168 1 -0.020114 -0.0161569 -0.0658821 0.000116 -2.09885 -0.449186 0.640786 2650 
1863 1 -0.0214427 -0.0118064 -0.0655395 4.2e-05 -3.04363 -0.210539 0.995791 2650 
4338 1 -0.0216986 -0.0239775 -0.0653773 0.000116 -3.61784 -0.422689 1.20076 2650 
1960 1 -0.0216701 -0.0113747 -0.0653868 0.000116 -1.88371 1.14947 0.624286 2650 
1364 1 -0.0064752 -0.00803562 -0.0654898 0.000423 -2.87893 -0.319696 1.36654 2650 
1317 1 -0.0231467 -0.00615319 -0.0649572 4.2e-05 -3.0167 -0.142164 1.07496 2650 
2167 1 -0.0238281 -0.0346581 -0.0646316 0.000116 -2.23544 -0.486208 0.824153 2650 
4376 1 -0.0251365 -0.0199418 -0.0642134 4.2e-05 -3.01234 -0.168551 1.17919 2650 
35 1 -0.0232913 -0.0175828 -0.0645017 0.000423 -2.27409 0.0852966 0.821166 2650 
3399 1 -0.0239483 -0.0153877 -0.064666 4.2e-05 -3.00108 0.164878 1.11142 2650 
1760 1 -0.0249898 -0.00778347 -0.0642707 4.2e-05 2.3519 -0.555848 -0.91447 2650 
2593 1 -0.0258057 -0.0193795 -0.0638677 0.000116 -2.96085 -0.079055 1.19633 2650 
3256 1 -0.0268235 -0.00841993 -0.0634163 0.000116 -2.12488 0.0311956 0.95939 2650 
15 1 -0.0258737 -0.00668133 -0.0635103 0.000423 -2.95139 -0.176186 1.22331 2650 
3534 1 -0.0251098 -0.00701383 -0.0638158 0.000423 -2.81984 0.168109 1.10953 2650 
1587 1 -0.0271915 -0.0413894 -0.0629594 0.000423 -0.524377 -0.748219 0.13092 2650 
3845 1 -0.0278467 -0.00959504 -0.0624161 0.000656 -2.50482 0.496393 1.11752 2650 
688 1 -0.0273378 -0.00841438 -0.0628935 0.000423 -2.10763 0.289229 0.916121 2650 
2224 1 -0.0301745 -0.0271475 -0.0615829 0.000423 -2.27506 -0.101177 1.11474 2650 
375 1 -0.029212 -0.0253191 -0.0620452 0.000423 -2.23155 -0.0332141 1.05065 2650 
2430 1 -0.0282783 -0.0244848 -0.0622217 0.000656 -2.24822 0.0278731 1.02176 2650 
1669 1 -0.0290081 -0.0222442 -0.0621408 0.000423 -2.23245 0.188084 1.04213 2650 
3339 1 -0.0297931 -0.0217479 -0.0617683 0.000423 -1.82193 -0.365838 0.878783 2650 
1687 1 -0.03045 -0.03166 -0.0614471 0.000423 -2.2252 0.310115 1.10269 2650 
1752 1 -0.0321311 -0.00539572 -0.0610147 4.2e-05 -2.83202 -0.122859 1.49138 2650 
811 1 -0.0312308 -0.000569392 -0.061054 0.000423 -2.20684 0.398941 1.12886 2650 
3409 1 -0.0322354 -0.031803 -0.0602668 0.000656 -2.31778 0.384428 1.23973 2650 
1675 1 -0.0320763 -0.000879876 -0.060614 0.000423 -2.26294 0.0860344 1.19752 2650 
1071 1 -0.0339488 -0.00613042 -0.0599375 0.000116 -2.63307 0.464252 1.49138 2650 
4150 1 -0.0354677 -0.0416927 -0.0590514 0.000116 1.15299 0.616061 -0.692513 2650 
3786 1 -0.0362539 -0.0128384 -0.058572 0.000116 -3.13192 -0.0755573 1.93854 2650 
3351 1 -0.0355896 -0.0097222 -0.058978 0.000116 -2.71214 -0.223292 1.63661 2650 
1500 1 -0.0371009 -0.0175988 -0.0580392 0.000116 -2.77043 -0.558329 1.77097 2650 
3574 1 -0.0354613 -0.0206014 -0.0572491 0.000116 2.24989 0.0941168 -0.791547 2650 
2846 1 -0.0389271 -0.0026669 -0.05692 4.2e-05 -2.04812 -0.0863968 1.40069 2650 
3891 1 -0.0388074 -0.0135848 -0.0565415 0.000423 -2.60841 -0.365813 1.79029 2650 
1870 1 -0.0419054 -0.00584008 -0.0547645 4.2e-05 -1.78796 0.00551112 1.36814 2650 
1207 1 -0.0429983 -0.003396 -0.0539106 4.2e-05 -1.46223 1.78648 1.16626 2650 
2060 1 -0.0381102 -0.000292836 -0.0545095 0.000116 2.83206 -0.0363177 -2.48228 2650 
2317 1 -0.0432434 -0.00649024 -0.0529265 0.000656 -1.83026 0.371023 1.49541 2650 
468 1 -0.0438814 -0.033255 -0.0527008 0.000423 -1.68824 0.560069 1.40572 2650 
844 1 -0.0445169 -0.0303108 -0.0525668 0.000116 -1.53929 1.99314 1.30357 2650 
3024 1 -0.0441917 -0.00410589 -0.0528405 0.000116 -1.87037 1.40058 1.56423 2650 
2162 1 -0.0457142 -0.0354861 -0.051529 0.000116 2.98857 -2.53412 -2.65132 2650 
4204 1 -0.0452088 -0.0107552 -0.0515667 0.000423 -2.29104 -0.186633 2.00856 2650 
1655 1 -0.0464131 -0.041372 -0.0501699 0.000656 -0.804842 0.161877 0.744574 2650 
2680 1 -0.0471725 -0.0286659 -0.0497766 0.000423 -1.9923 -0.380429 1.88807 2650 
2074 1 -0.0470623 -0.0181008 -0.0503008 0.000116 -2.31455 -0.208034 2.16554 2650 
2664 1 -0.0472188 -0.0167837 -0.0497327 0.000423 -2.29058 -0.145314 2.1748 2650 
491 1 -0.0478683 -0.0103224 -0.0491078 0.000423 -1.79597 0.108691 1.75064 2650 
3815 1 -0.0479736 -0.0077623 -0.0494323 0.000116 -1.45976 0.701609 1.41668 2650 
3543 1 -0.048598 -0.0267624 -0.0483858 0.000423 -1.87841 0.184454 1.88665 2650 
579 1 -0.0487239 -0.0180433 -0.0482591 0.000423 -2.27357 -0.365512 2.29547 2650 
4017 1 -0.0491304 -0.00870762 -0.0482828 0.000116 -1.74198 0.485189 1.77256 2650 
2208 1 -0.0491498 -0.0270757 -0.0474921 0.000656 -1.84325 0.188562 1.90759 2650 
1325 1 -0.0485615 -0.00993885 -0.0480935 0.000656 -1.77452 0.194115 1.79179 2650 
3945 1 -0.0497559 -0.0049306 -0.0477447 4.2e-05 -2.87119 -0.199229 2.99214 2650 
935 1 -0.04954 -0.0408672 -0.0473427 0.000423 -1.16755 -0.467165 1.46736 2650 
3527 1 -0.0502765 -0.0293745 -0.0466394 0.000423 -1.7405 -0.183685 1.87623 2650 
1794 1 -0.0499402 -0.0132537 -0.0469993 0.000423 -1.96014 -0.092207 2.08279 2650 
1598 1 -0.0504299 -0.00748191 -0.0469239 0.000116 -0.820816 -0.104297 0.882144 2650 
1912 1 -0.050287 -0.0415656 -0.0465414 0.000423 -1.39829 -0.43675 1.52956 2650 
1833 1 -0.0508753 -0.0282075 -0.0464406 0.000116 -1.88794 0.0541155 2.06823 2650 
1372 1 -0.0512272 -0.0335523 -0.0455931 0.000423 -1.80664 0.0174986 2.0299 2650 
1433 1 -0.051115 -0.0253475 -0.0453703 0.000656 -1.86329 -0.00381913 2.09922 2650 
3874 1 -0.051689 -0.0195473 -0.0450688 0.000423 -1.99533 -0.0859308 2.28842 2650 
51 1 -0.05233 -0.0388749 -0.0443227 0.000423 0.0111232 0.831655 -0.0149607 2650 
691 1 -0.0520757 -0.0289466 -0.0446215 0.000423 -1.94152 0.125484 2.26586 2650 
1990 1 -0.0519688 -0.0263037 -0.0443897 0.000656 -1.79499 -0.00160848 2.10146 2650 
4323 1 -0.0523917 -0.0223024 -0.04425 0.000423 -1.83388 0.32262 2.1713 2650 
1943 1 -0.0524279 -0.00430578 -0.0446804 0.000116 -2.20681 0.274575 2.58947 2650 
1503 1 -0.0527195 -0.00363796 -0.044336 0.000116 -1.70584 -0.129803 2.02839 2650 
2211 1 -0.0522238 -0.0400673 -0.0440893 0.000656 -1.49847 -0.125829 1.77528 2650 
753 1 -0.0529902 -0.0300156 -0.0440121 0.000116 -1.9804 -0.181928 2.38438 2650 
367 1 -0.0528359 -0.0264639 -0.0437187 0.000423 -1.78172 -0.251268 2.15328 2650 
1453 1 -0.0527719 -0.0194206 -0.0437959 0.000423 -1.9747 -0.128694 2.37941 2650 
2418 1 -0.0529838 -0.0176334 -0.0441353 4.2e-05 -2.01172 0.00142376 2.41503 2650 
1169 1 -0.0492842 -0.00446722 -0.0439063 0.000116 -2.82787 -0.0949187 1.5077 2650 
2546 1 -0.0531918 -0.0292307 -0.043285 0.000423 -1.6392 -0.179729 2.01437 2650 
1020 1 -0.0535455 -0.00668143 -0.0428466 0.000423 -1.20216 0.469146 1.50234 2650 
2465 1 -0.0537639 -0.0361204 -0.0425722 0.000423 -0.163036 0.516407 0.205895 2650 
636 1 -0.0541691 -0.00769146 -0.0425527 0.000116 -2.03849 -0.306798 2.59497 2650 
2083 1 -0.0553531 -0.00743563 -0.0407278 4.2e-05 4.15791 3.14603 -7.02403 2650 
3444 1 -0.0563768 -0.001913 -0.0390463 0.000423 -1.62878 -0.152172 2.3517 2650 
2066 1 -0.0573111 -0.0136419 -0.0382159 0.000116 -1.40734 -0.15996 2.11054 2650 
3647 1 -0.0576893 -0.00610137 -0.0370796 0.000423 -1.77166 -0.0885854 2.75639 2650 
2679 1 -0.057951 -0.0296021 -0.0366694 0.000423 -1.74427 -0.148265 2.75659 2650 
3385 1 -0.0584575 -0.0180103 -0.0364381 0.000116 0.829416 -0.53419 -1.33063 2650 
4138 1 -0.0583154 -0.0067095 -0.0366652 0.000116 -1.90322 -0.158218 3.02704 2650 
14 1 -0.0590289 -0.0291482 -0.0349076 0.000423 -1.2376 0.0864934 2.0928 2650 
2103 1 -0.0588057 -0.0233063 -0.0352824 0.000423 -1.24573 -0.113889 2.07628 2650 
2386 1 -0.0599153 -0.0250276 -0.0339879 0.000116 0.979559 -0.383179 -1.72681 2650 
1591 1 -0.0598798 -0.0399738 -0.0334269 0.000423 -0.521903 0.351568 0.934918 2650 
1356 1 -0.0597432 -0.0277758 -0.0336705 0.000423 -1.24027 -0.471317 2.20068 2650 
1202 1 -0.0603273 -0.0220939 -0.033404 4.2e-05 -0.876833 -0.0571832 1.58355 2650 
91 1 -0.0608106 -0.0343226 -0.0323588 0.000116 -1.66002 -0.198129 3.11961 2650 
208 1 -0.0610263 -0.0267887 -0.0319502 0.000116 -0.366318 1.24382 0.699682 2650 
1210 1 -0.0623684 -0.0135193 -0.0294175 4.2e-05 -1.36468 -0.18173 2.89328 2650 
1072 1 -0.0612479 -0.00514365 -0.0287178 0.000116 1.1866 -0.110945 3.8564 2650 
3918 1 -0.0627615 -0.0448588 -0.0283905 0.000116 0.550183 0.641217 -1.21626 2650 
3066 1 -0.0632757 -0.00974361 -0.0274117 4.2e-05 -1.18001 0.487252 2.72387 2650 
3040 1 -0.0633274 -0.00558932 -0.0271048 0.000116 -0.545891 -0.00545433 1.27542 2650 
2051 1 -0.0636205 -0.00100985 -0.0264093 0.000116 -0.555857 0.852451 1.33907 2650 
2560 1 -0.0636392 -0.0332439 -0.025554 0.000423 -0.997018 0.285593 2.48296 2650 
3522 1 -0.0638423 -0.0352602 -0.0250421 0.000423 -0.604918 -0.33902 1.54218 2650 
4025 1 -0.0641555 -0.0137704 -0.0250817 0.000116 -1.08291 0.0717906 2.76993 2650 
3196 1 -0.0640602 -0.0138202 -0.0244795 0.000423 -1.13347 -0.351617 2.96616 2650 
3974 1 -0.0639016 -0.0409404 -0.0244426 0.000423 0.377933 0.145221 -1.78568 2650 
2052 1 -0.0650802 -0.0126156 -0.0225741 0.000116 0.311643 -0.29546 -0.89845 2650 
2819 1 -0.0341434 -0.00415879 -0.0225216 0.000116 -5.10016 -0.109962 -3.31824 2650 
355 1 -0.0650428 -0.0208741 -0.0217251 0.000423 -0.850523 0.30615 2.37892 2650 
4106 1 -0.065061 -0.000470194 -0.02168 0.000423 -0.930431 -0.0270781 2.79219 2650 
4360 1 -0.065166 -0.0407453 -0.0211805 0.000116 1.1986 4.49876 -2.99729 2650 
1050 1 -0.0656163 -0.0145429 -0.0209647 0.000116 0.239662 -1.22291 -0.750106 2650 
4021 1 -0.0651327 -0.000236807 -0.0200494 0.000116 -0.656812 -0.0820072 3.25372 2650 
2201 1 -0.0655313 -0.0390041 -0.0194126 0.000656 -0.0766887 0.109293 0.258878 2650 
3227 1 -0.0661128 -0.0362862 -0.0182222 0.000423 -0.414343 0.973255 1.50328 2650 
3875 1 -0.0663475 -0.0247497 -0.0173482 0.000423 -0.603834 0.379445 2.30934 2650 
427 1 -0.0665361 -0.0038771 -0.0178318 0.000116 -0.735179 -0.981558 2.74318 2650 
2337 1 -0.0662763 -0.00052689 -0.0176185 0.000423 -0.806758 0.068215 3.03482 2650 
1563 1 -0.0664314 -0.0439559 -0.0170244 0.000423 -0.833752 0.720865 3.25341 2650 
4373 1 -0.0667059 -0.0288694 -0.0174794 4.2e-05 1.7451 -5.73637 -6.65977 2650 
821 1 -0.0664376 -0.0274044 -0.0169998 0.000423 -0.62606 0.210329 2.44673 2650 
420 1 -0.0667913 -0.017204 -0.0168508 0.000116 -0.780983 -0.202056 3.09558 2650 
606 1 -0.000183 0.00307768 -0.016592 0.000116 0 -0.011753 0 2650 
188 1 -0.000804488 0.00992298 -0.0167925 0.000116 -0.0148612 0.0228045 0.00418427 2650 
2713 1 -0.000761894 0.0101906 -0.0167511 0.000116 0.00037122 0.035974 0.00535071 2650 
3422 1 -0.0666785 -0.0275304 -0.0160291 0.000423 -0.602599 0.100783 2.50671 2650 
3204 1 -0.0665718 -0.0244548 -0.0164664 0.000423 -0.633434 0.132318 2.5609 2650 
3328 1 -0.066665 -0.0221562 -0.016085 0.000423 -0.344908 -0.273522 1.42947 2650 
1363 1 -0.066639 -0.0202853 -0.0161924 0.000423 -0.143832 0.503593 0.590666 2650 
545 1 -0.00233248 -0.00116826 -0.0159287 4.2e-05 -0.000252069 0.0758595 -0.196498 2650 
736 1 -0.00373117 0.000950978 -0.0164472 0.000116 -0.0354095 -0.0179405 0.00483888 2650 
30 1 -2.14252e-05 0.00112581 -0.0162761 0.000423 -0.016733 -0.0244017 -0.0123914 2650 
150 1 -0.00355244 0.00159842 -0.0160952 0.000423 -0.0632838 0.0435722 0.00808514 2650 
2793 1 -0.00197946 0.00197067 -0.0160609 0.000423 0.00849085 0.101984 0.0166858 2650 
1679 1 -0.00363797 0.00256383 -0.0160644 0.000423 0.000918261 -0.00453681 -0.0114541 2650 
2013 1 -0.00273403 0.00279939 -0.0161083 0.000423 -6.21088e-05 -0.00297451 0.00266081 2650 
2301 1 -0.004222 0.00485068 -0.016305 4.2e-05 0 -0.011753 0 2650 
3121 1 -0.00300145 0.00507701 -0.0162025 0.000423 0.0292552 0.00121421 5.81941e-05 2650 
1388 1 -0.00121634 0.00522543 -0.0158348 0.000116 -0.039288 0.0021603 0.0169103 2650 
978 1 -0.00485016 0.00680742 -0.0158038 0.000116 0.015313 -0.00383775 -0.0151954 2650 
302 1 -0.000192595 0.00663152 -0.0161924 0.000116 0.0171051 0.0203877 0.0103663 2650 
3934 1 -0.001977 0.00783968 -0.016218 0.000116 0 -0.011753 0 2650 
1617 1 -0.00332752 0.00978279 -0.0163871 0.000116 0.0304013 0.00375314 0.0183235 2650 
2924 1 -0.000460892 0.0113373 -0.0162992 0.000116 -0.059039 0.0353164 0.00422158 2650 
4231 1 -3.68346e-05 0.0166698 -0.01655 0.000116 -0.0326972 0.0172224 -0.0576289 2650 
3573 1 -0.0024785 0.0293095 -0.0162591 0.000116 0.222562 -0.254179 0.0393607 2650 
1173 1 -0.0010013 0.0358785 -0.0160211 0.000116 -0.136556 0.342033 -0.0293067 2650 
4245 1 -0.00340624 0.0421808 -0.0163334 0.000116 -0.131082 0.152483 0.00432583 2650 
1357 1 -0.00226138 0.0524753 -0.0163153 0.000423 0.0688427 0.283755 -0.00440331 2650 
152 1 -0.0668512 -0.019097 -0.0152926 0.000423 -0.546982 0.0449386 2.39112 2650 
1022 1 -0.0030489 -0.00184787 -0.0150271 0.000423 -0.0361806 0.0454744 -0.169588 2650 
623 1 -0.00669455 0.000465011 -0.0151087 0.000116 0.0135085 -0.00577665 0.0160157 2650 
1991 1 -0.0053507 0.000508755 -0.0151774 0.000656 -0.0197706 -0.00214867 0.00868857 2650 
3637 1 -0.0038509 0.00232339 -0.0152779 0.000423 -0.0104579 0.0117338 -0.0066098 2650 
3239 1 -0.00362099 0.00188145 -0.0155993 0.000116 -0.046934 0.0296099 0.0330921 2650 
676 1 -0.00274026 0.00191063 -0.0155506 0.000423 -0.0247905 0.00447638 0.0282863 2650 
3043 1 -0.000926054 0.00250315 -0.0152091 0.000116 0.127084 0.0078871 0.090283 2650 
2399 1 -0.002418 0.00329168 -0.015541 0.000116 0 -0.011753 0 2650 
2283 1 -0.00238193 0.00378164 -0.0157329 0.000116 -0.0318858 -0.01081 -0.0228231 2650 
2313 1 -0.00480383 0.0058741 -0.0150873 0.000656 0.00856952 0.0288131 0.00982472 2650 
2438 1 -0.00557789 0.00665206 -0.0153151 0.000423 0.00981634 -0.0035698 0.0083781 2650 
963 1 -0.00594189 0.00715349 -0.0153541 0.000116 -0.0441964 -0.0047425 -0.0272805 2650 
1219 1 -0.000562482 0.00723252 -0.0156823 0.000656 0.0133734 0.0239605 0.00857101 2650 
1620 1 -0.00276519 0.00841096 -0.015703 0.000116 0.0529387 0.0514306 -0.00503745 2650 
2969 1 -0.00147585 0.0082926 -0.0150913 0.000656 -0.00781599 0.0183331 -4.51083e-05 2650 
1483 1 -0.000325274 0.00865206 -0.0153545 0.000423 -0.0010087 0.0213686 -0.00667363 2650 
3830 1 -0.006879 0.00939168 -0.015411 4.2e-05 0 -0.011753 0 2650 
86 1 -0.002064 0.00909568 -0.015055 0.000116 0 -0.011753 0 2650 
3177 1 -0.001068 0.00889568 -0.015412 4.2e-05 0 -0.011753 0 2650 
1228 1 -0.00145228 0.00940995 -0.0150092 0.000423 -0.0026547 0.0243513 0.000515369 2650 
371 1 -0.000453385 0.00994305 -0.0153101 0.000423 0.000724313 -0.00601752 -0.0061741 2650 
938 1 -0.000869 0.0103017 -0.015416 0.000116 0 -0.011753 0 2650 
3644 1 -0.000954526 0.0124418 -0.0150604 0.000423 -0.00432743 0.00711996 -0.0325914 2650 
568 1 -0.00224991 0.0169171 -0.0151053 0.000423 0.0646767 0.0324089 0.0265592 2650 
2817 1 -0.00174578 -0.001708 -0.0143773 0.000116 0.0100645 -0.056664 0.00630574 2650 
2827 1 -0.0052093 -0.00133141 -0.0142425 0.000116 -0.0201753 -0.0226203 0.0017234 2650 
1053 1 -0.007469 -0.000550319 -0.014946 0.000116 0 -0.011753 0 2650 
509 1 -0.00739394 -0.000311956 -0.0143842 0.000116 -0.00521486 0.00944493 -0.0325939 2650 
222 1 -0.00231304 -7.51841e-05 -0.0145075 0.000656 -0.0189906 -0.0240038 0.0410277 2650 
2332 1 -0.00437789 9.28682e-05 -0.0142178 0.000423 -0.0114447 -0.00779769 0.00753018 2650 
2922 1 -0.00664666 0.00146507 -0.0144399 0.000116 -0.0108987 -0.0113206 0.0393947 2650 
220 1 -0.00361891 0.00263498 -0.0147946 4.2e-05 0.00197382 0.00663681 0.00671825 2650 
1171 1 -0.00861759 0.00412864 -0.0142401 0.000116 0.0131753 -0.0110464 0.0150896 2650 
3365 1 -0.002315 0.00571768 -0.014552 0.000116 0 -0.011753 0 2650 
3950 1 -0.00713629 0.00642677 -0.0143527 0.000656 0.000588401 -0.011021 0.0254098 2650 
1618 1 -0.00853479 0.00800886 -0.0142374 0.000116 -0.0222988 0.059375 0.0201275 2650 
581 1 -0.00560795 0.00861063 -0.0143661 0.000423 -0.000593495 -0.0101803 -0.00423903 2650 
1827 1 -0.00682085 0.0094945 -0.0144989 0.000116 -0.0386186 0.00754243 -0.0442276 2650 
233 1 -0.0047766 0.00974141 -0.0147885 0.000423 0.000342891 -0.00976437 -0.0328705 2650 
3669 1 -0.00024568 0.010615 -0.0146792 0.000423 0.00220454 -0.00743356 -0.00383523 2650 
478 1 -0.00763076 0.0150576 -0.0145673 0.000423 -0.0255767 0.012458 -0.051203 2650 
142 1 -0.00468403 0.0235927 -0.0149117 0.000423 -0.0600809 0.0373384 0.0570253 2650 
913 1 -0.0011084 0.0250842 -0.014779 0.000423 -0.0131935 0.0940792 0.0439723 2650 
456 1 -0.00734942 0.0386614 -0.0147479 0.000423 -0.665288 -0.0373627 0.276918 2650 
400 1 -0.0675299 -0.0115069 -0.0135919 0.000116 -0.634165 -0.174984 3.15077 2650 
1468 1 -0.00465362 -0.00268738 -0.0139126 0.000423 -0.0197001 -0.0470204 -0.0326717 2650 
3153 1 -0.00123253 -0.00293067 -0.0135594 0.000116 0.0575311 -0.0297429 -0.0490481 2650 
3733 1 -0.00664364 0.00123405 -0.0136502 0.000656 -0.0232119 0.0173762 0.0152854 2650 
1032 1 -0.00795235 0.00385076 -0.0141575 0.000423 -0.0173367 -0.00904293 -0.0556269 2650 
3587 1 -0.00614991 0.00382898 -0.0141366 0.000116 -0.0152422 -0.0151231 -0.00566973 2650 
4165 1 -0.00517256 0.00387836 -0.013689 0.000656 -6.3943e-05 -0.032131 0.00827285 2650 
234 1 -0.000819878 0.00368375 -0.0134376 0.000423 0.0351287 -0.0167305 0.0264562 2650 
2512 1 -0.00941021 0.00422545 -0.013656 0.000116 0.018779 -0.0192413 0.00230208 2650 
2918 1 -0.00794779 0.00506239 -0.0140343 0.000116 -0.0132236 0.0205789 -0.0380223 2650 
1288 1 -0.002467 0.00702068 -0.014044 0.000116 0 -0.011753 0 2650 
4227 1 -0.000409321 0.00687984 -0.0137984 0.000116 -0.00921828 -0.0161692 0.0154311 2650 
2322 1 -0.00837751 0.00717221 -0.013579 0.000656 -0.010949 -0.0100426 0.00333341 2650 
3515 1 -0.00722956 0.00771864 -0.0141016 0.000656 -0.0106986 -0.00465398 0.00551776 2650 
4190 1 -0.00839496 0.00856641 -0.0141573 0.000423 -0.009489 7.8582e-05 0.00632979 2650 
2222 1 -0.000473266 0.0079861 -0.0141761 0.000423 -0.00549102 -0.00568171 -0.00117535 2650 
4257 1 -0.00817104 0.0097406 -0.0140512 0.000116 0.0101268 -0.0416798 0.0036163 2650 
1476 1 -0.006941 0.00982068 -0.013435 0.000423 0 -0.011753 0 2650 
1986 1 -0.00287896 0.00990536 -0.0137256 0.000656 0.00762539 0.0149956 0.0116892 2650 
289 1 -0.00168035 0.0097407 -0.013518 0.000116 -0.0188061 -0.000940224 -0.0594549 2650 
1409 1 -0.00044 0.0108007 -0.013868 0.000116 0 -0.011753 0 2650 
3007 1 -0.00138721 0.0113734 -0.0141106 0.000423 -0.0135196 -0.00505473 -0.0280609 2650 
959 1 -0.00849595 0.0135205 -0.0135001 0.000116 -0.0723779 0.0623805 -0.0339909 2650 
2413 1 -0.0134048 -0.00351269 -0.0132302 4.2e-05 -1.38285 -0.0597453 -1.2594 2650 
2172 1 -0.00759148 -0.00163278 -0.0133306 0.000116 0.0554355 0.00150652 -0.0523356 2650 
3551 1 -0.0065796 0.000296006 -0.0130045 0.000423 -0.015336 0.00523015 0.00637389 2650 
4126 1 -0.00495343 0.000191666 -0.0132355 0.000116 -0.0261531 0.0084042 0.00402279 2650 
2525 1 -0.004063 0.00124768 -0.013231 4.2e-05 0 -0.011753 0 2650 
2619 1 -0.005851 0.00206368 -0.012854 0.000116 0 -0.011753 0 2650 
3880 1 -0.010277 0.00297968 -0.012913 0.000423 0 -0.011753 0 2650 
2609 1 -0.00886 0.00278768 -0.013248 0.000116 0 -0.011753 0 2650 
3917 1 -0.003984 0.00354868 -0.012703 0.000116 0 -0.011753 0 2650 
2059 1 -0.003583 0.00375768 -0.012756 0.000116 0 -0.011753 0 2650 
3322 1 -0.00347071 0.00467451 -0.012773 0.000423 0.00110678 0.0140263 0.0123959 2650 
2912 1 -0.00561229 0.00487567 -0.0132358 0.000116 0.00196064 0.0151142 0.00117299 2650 
4078 1 -0.00929088 0.00616496 -0.0126961 0.000423 -0.0196946 -0.00953845 0.00130892 2650 
450 1 -0.00630938 0.00590242 -0.0131475 0.000656 0.0112424 0.0469319 0.00733295 2650 
104 1 -0.0030384 0.00601211 -0.0130718 4.2e-05 -0.00674979 0.0150481 0.0116551 2650 
1427 1 -0.002948 0.00608868 -0.013376 4.2e-05 0 -0.011753 0 2650 
3446 1 -0.00235817 0.00562464 -0.0126781 0.000423 0.014297 -0.016402 -0.00312272 2650 
2913 1 -0.0078625 0.0066343 -0.0133261 0.000116 -0.0140945 -0.0228944 -0.00540615 2650 
4296 1 -0.0039592 0.00692958 -0.0129758 0.000423 -0.0431702 0.0421068 0.0473826 2650 
3259 1 -0.00882007 0.00748172 -0.0129615 0.000116 -0.0089878 -0.00810535 0.00538998 2650 
508 1 -0.00982381 0.00859891 -0.0133413 0.000116 -0.0281885 0.0711476 0.0146726 2650 
1237 1 -0.00993061 0.00799614 -0.0131994 0.000423 0.0140946 0.0191627 -0.00854221 2650 
1795 1 -0.00872007 0.00808417 -0.0129908 0.000423 0.00165908 -0.0118589 -0.000959055 2650 
1250 1 -0.00798851 0.00856594 -0.0132173 0.000423 -0.0109693 -0.0170514 -0.0143142 2650 
1769 1 -0.00657402 0.00864313 -0.0134135 0.000656 -0.0148717 0.000652235 -0.0101128 2650 
2483 1 -0.00901539 0.00913633 -0.0129367 0.000116 0.0222317 -0.00887276 -0.000700143 2650 
205 1 -0.000744 0.00880468 -0.01334 0.000116 0 -0.011753 0 2650 
1775 1 -0.00822897 0.011565 -0.0130482 0.000423 -7.29146e-05 -0.011186 -0.000346901 2650 
949 1 -0.00673157 0.0113394 -0.0128285 0.000116 -0.0176518 0.0277962 -0.00593252 2650 
3632 1 -0.0098359 0.0127988 -0.0133047 0.000423 -0.0216519 0.000467483 0.0139725 2650 
3216 1 -0.00464485 0.0267674 -0.0132701 0.000423 -0.00544148 0.107266 0.0543995 2650 
2467 1 -0.000970104 0.0315025 -0.0131922 0.000423 0.0301791 0.103437 0.0421276 2650 
3502 1 -0.0678717 -0.0075975 -0.012192 4.2e-05 -0.565876 -0.167429 3.15018 2650 
330 1 -0.00860392 -0.00321704 -0.0121082 4.2e-05 -0.0696064 -0.0147686 0.0345761 2650 
4097 1 -0.00894718 -0.00220876 -0.012084 0.000423 -0.0116536 0.00229875 0.0371095 2650 
2666 1 -0.00789686 -0.00167301 -0.012017 0.000423 0.00506312 -0.0128769 -0.0752945 2650 
2468 1 -0.00400709 -0.00180635 -0.0121278 0.000423 -0.0504222 0.0211365 0.000191011 2650 
1763 1 -0.001143 -0.00206632 -0.012442 0.000656 0 -0.011753 0 2650 
3191 1 -0.00740886 -0.00027385 -0.0125602 0.000656 -0.0197381 0.00193499 -0.0014393 2650 
1422 1 -0.003881 -0.000220319 -0.012349 4.2e-05 0 -0.011753 0 2650 
1799 1 -0.00322966 0.000586645 -0.0120562 0.000423 7.10678e-05 -0.0118308 4.63239e-05 2650 
3956 1 -0.00904773 0.00148511 -0.0123133 0.000656 -0.000640959 -0.0104529 -0.000368355 2650 
541 1 -0.00648025 0.000822063 -0.0125849 4.2e-05 -0.0143735 0.00954058 0.00936495 2650 
3389 1 -0.010415 0.00204568 -0.012026 0.000116 0 -0.011753 0 2650 
3201 1 -0.00636156 0.00166015 -0.0122299 0.000423 -0.00608722 0.0216696 0.0089772 2650 
3477 1 -0.00861911 0.00247523 -0.0118955 0.000116 0.0616358 -0.0139442 -0.0219299 2650 
3826 1 -0.009208 0.00394068 -0.012552 0.000116 0 -0.011753 0 2650 
3645 1 -0.00623175 0.00327099 -0.012364 0.000423 -0.0357151 -0.0039173 0.0164321 2650 
1192 1 -0.00530052 0.00381412 -0.0122122 0.000116 -0.0160738 0.0171838 -0.0228619 2650 
411 1 -0.0105656 0.00445488 -0.0120914 0.000116 -0.00787832 -0.00657823 -8.20909e-05 2650 
2596 1 -0.00986633 0.00468901 -0.012479 0.000116 -0.0442582 -0.0431064 0.0384975 2650 
3316 1 -0.008979 0.00469368 -0.012376 0.000423 0 -0.011753 0 2650 
708 1 -0.00273468 0.00440488 -0.0123336 0.000423 0.0112279 -0.00894022 0.00239788 2650 