ITEM: TIMESTEP
8260470
ITEM: NUMBER OF ATOMS
4323
ITEM: BOX BOUNDS ff ff ff
-0.15 0.15
-0.15 0.06
-0.15 0.15
ITEM: ATOMS id type x y z radius vx vy vz density 
1833 1 -0.00202005 -0.0606639 -0.0688545 0.000116 8.11068 0.059769 -0.237951 2650 
3073 1 -0.0117957 -0.059954 -0.0679417 4.2e-05 4.67724 0.0764284 -0.812041 2650 
4132 1 -0.00652228 -0.0530155 -0.0685746 0.000116 0.48341 0.308892 -0.0459781 2650 
259 1 -0.00271541 -0.0529103 -0.0685243 0.000423 0.964809 0.368302 -0.0382325 2650 
1081 1 -0.0138891 -0.0479192 -0.0674694 0.000116 -0.783726 -0.144662 0.161336 2650 
3348 1 -0.0159142 -0.054162 -0.0670206 0.000116 -3.96369 0.179185 0.941187 2650 
1721 1 -0.020935 -0.060643 -0.0650785 0.000116 8.61384 0.411073 -9.17579 2650 
4366 1 -0.0265795 -0.0594204 -0.0635496 0.000116 -0.408958 -0.267414 0.171046 2650 
3974 1 -0.0263334 -0.0582094 -0.0633206 0.000423 0.564858 -0.00983095 -0.23491 2650 
3000 1 -0.0350528 -0.0497916 -0.0589428 0.000423 -1.29882 -0.639147 0.7724 2650 
1856 1 -0.0375759 -0.0599043 -0.0577328 0.000116 -1.53866 -2.79322 1.00145 2650 
2593 1 -0.0374441 -0.0574142 -0.0578184 0.000116 3.15983 0.329383 -2.04636 2650 
4036 1 -0.0372318 -0.052082 -0.0579553 0.000116 0.694771 -0.106219 -0.446336 2650 
2820 1 -0.037859 -0.0623008 -0.0575475 0.000116 2.15007 -2.85609 -1.41447 2650 
3005 1 -0.0377364 -0.0583074 -0.0572619 0.000423 3.86702 0.567791 -2.54842 2650 
3724 1 -0.0388065 -0.050273 -0.0570024 4.2e-05 4.3339 2.36249 -2.95046 2650 
1500 1 -0.0323663 -0.0616003 -0.0559307 0.000116 5.22031 0.390175 -4.51639 2650 
1058 1 -0.041325 -0.0536648 -0.0551114 0.000116 0.702533 -0.553851 -0.52679 2650 
3619 1 -0.0471436 -0.0548696 -0.0503259 4.2e-05 -4.08994 -2.37841 3.83132 2650 
2395 1 -0.0558621 -0.0620363 -0.0402776 0.000116 0.984299 -0.237604 -1.82483 2650 
1471 1 -0.0560296 -0.0588283 -0.0395428 0.000423 -0.243395 -0.368253 0.344875 2650 
1393 1 -0.0558527 -0.062684 -0.039409 0.000116 0.0161761 -1.35877e-10 -7.78198 2650 
4016 1 -0.0575973 -0.0478808 -0.0377833 0.000116 0.107375 0.907614 -0.163684 2650 
935 1 -0.0585142 -0.0468201 -0.0357636 0.000423 0.757654 -0.102033 -1.23963 2650 
2954 1 -0.0591749 -0.0498946 -0.0352613 0.000116 5.97183 0.0829332 -10.0218 2650 
51 1 -0.0602118 -0.045424 -0.0328252 0.000423 0.401601 0.00553454 -0.736663 2650 
2296 1 -0.0617416 -0.0516503 -0.030545 0.000116 -0.418513 -1.13423 0.845953 2650 
3753 1 -0.0621658 -0.0575444 -0.0289545 0.000423 -0.751038 -0.685276 1.61249 2650 
208 1 -0.0643539 -0.0464175 -0.0245682 0.000116 -0.782578 1.86832 2.04989 2650 
3547 1 -0.0652851 -0.050472 -0.0209952 0.000423 -0.142987 0.302473 0.444623 2650 
2201 1 -0.0657594 -0.0554441 -0.0186248 0.000656 0.607144 0.0441695 -2.1924 2650 
486 1 -0.0661103 -0.0540308 -0.0182306 0.000423 -0.108637 1.38752 0.580174 2650 
1231 1 -0.0665498 -0.0482439 -0.016555 0.000423 -0.274744 -0.122004 1.10445 2650 
3090 1 -0.0674067 -0.0602109 -0.0126209 0.000423 -0.190909 0.034897 1.01962 2650 
4139 1 -0.0679747 -0.0560445 -0.0111561 0.000116 -0.240421 -0.495063 1.4649 2650 
693 1 -0.0678792 -0.0456814 -0.00976525 0.000423 0.353288 2.23587 -2.45579 2650 
854 1 -0.0684598 -0.0530093 -0.00763375 0.000116 0.434924 -4.57262 -3.90042 2650 
390 1 -0.0688346 -0.0561274 -0.00261319 0.000116 0.209951 -0.511989 -5.53041 2650 
3785 1 -0.068833 -0.0536264 -0.0026549 0.000116 0.194427 1.46212 -5.04081 2650 
1816 1 -0.068866 -0.0594773 -0.0015789 0.000116 0.00968874 0.0649046 -0.422588 2650 
3691 1 -0.0688704 -0.0615188 0.00137471 0.000116 -0.0345256 -0.0293946 -1.72966 2650 
239 1 -0.0685701 -0.0607407 0.00104155 0.000423 0.0248977 0.224907 1.63913 2650 
734 1 -0.0688158 -0.062378 0.00306912 0.000116 -0.662637 0.0338079 -14.8574 2650 
3479 1 -0.0670053 -0.0623346 0.0139677 0.000116 1.30169 0.692343 -12.2381 2650 
1934 1 -0.0665314 -0.0573963 0.0178493 0.000116 -1.9345 -0.0465102 -7.21062 2650 
3038 1 -0.0650379 -0.0625966 0.0181492 0.000116 0.872562 0.747852 -3.54751 2650 
1630 1 -0.0661904 -0.0531763 0.0190751 0.000116 0.218355 0.440456 0.75769 2650 
1784 1 -0.0655181 -0.0507997 0.0202564 0.000423 0.303254 -0.223796 0.988589 2650 
843 1 -0.0657504 -0.0503963 0.020535 0.000116 0.159841 0.133432 0.561019 2650 
3586 1 -0.0627033 -0.0613172 0.0241217 0.000116 -0.493101 1.13012 -2.07109 2650 
1030 1 -0.0632227 -0.0480006 0.0265675 0.000423 0.49028 -0.161111 1.16672 2650 
2 1 -0.061121 -0.0479661 0.0305848 0.000656 0.70781 0.185989 1.4145 2650 
4376 1 -0.0604385 -0.0610028 0.0332024 4.2e-05 -0.278285 0.00137585 -0.506564 2650 
3891 1 -0.0541143 -0.046785 0.0421265 0.000423 0.166633 -0.596143 0.177228 2650 
2921 1 -0.0541194 -0.0459157 0.042373 0.000116 0.0765551 3.98857 -1.47419 2650 
95 1 -0.0506669 -0.051845 0.0466678 0.000116 -1.69125 0.0403302 -1.83618 2650 
1316 1 -0.0252977 -0.0491252 0.0486253 4.2e-05 -3.90303 -2.67901 -5.13249 2650 
2833 1 -0.0422776 -0.0559669 0.0543841 0.000116 -1.4631 1.01303 -1.13739 2650 
3360 1 -0.0412283 -0.0571706 0.0551633 0.000116 -0.779224 2.41438 -0.433561 2650 
3933 1 -0.0420324 -0.0526668 0.0545738 0.000116 0.690574 0.0750489 0.531875 2650 
2711 1 -0.0410927 -0.0567815 0.0552848 0.000116 -1.01523 0.862268 -0.754615 2650 
2451 1 -0.0366966 -0.0607934 0.0579337 0.000423 3.04877 0.00871248 1.93116 2650 
3088 1 -0.0348861 -0.0614876 0.0590416 0.000423 0.247779 0.0977103 0.146406 2650 
3549 1 -0.0289999 -0.0621815 0.0621446 0.000423 -0.258403 0.0352018 -0.120734 2650 
1912 1 -0.0294889 -0.0473486 0.0619141 0.000423 1.56002 0.163551 0.743014 2650 
518 1 -0.0280459 -0.0605642 0.0629162 0.000116 -2.16236 -0.0401573 -0.963905 2650 
2848 1 -0.0250658 -0.0522116 0.0642411 4.2e-05 -6.45089 -0.387622 -2.51704 2650 
2210 1 -0.0215365 -0.0576473 0.0648644 0.000656 2.79033 0.206095 0.926457 2650 
2965 1 -0.0178765 -0.0575544 0.0666006 4.2e-05 -1.18922 -0.798658 -0.319203 2650 
1825 1 -0.0134263 -0.0484543 0.067563 0.000116 -2.01211 0.738546 -0.399851 2650 
856 1 -0.00815043 -0.0580857 0.0684002 0.000116 -0.626913 -1.08655 -0.0747016 2650 
578 1 -0.00829861 -0.0526197 0.0680741 0.000423 -2.13234 0.242222 -0.259944 2650 
955 1 -0.00106815 -0.0518552 0.0688758 0.000116 1.20231 0.244809 0.0186459 2650 
3154 1 -0.000118 -0.0474135 0.068884 0.000116 -0.888639 0.235481 -0.00152226 2650 
3936 1 -0.00417478 -0.00892243 -0.0687151 4.2e-05 12.3453 3.99327 -0.179552 2650 
1751 1 -0.00449133 -0.00628266 -0.0688116 4.2e-05 -2.42837 1.35344 0.1585 2650 
1076 1 -0.00263948 -0.00623052 -0.0688335 0.000116 -3.2015 -0.142596 0.122764 2650 
631 1 -0.0017075 -0.00621538 -0.068863 0.000116 -3.19062 -0.149426 0.0791131 2650 
2148 1 -0.00136281 -0.000298552 -0.0688726 0.000116 -1.33188 0.442683 -0.0568107 2650 
2457 1 -0.00955715 -0.0437746 -0.067909 0.000423 5.93252 0.511998 -0.834911 2650 
3729 1 -0.00332622 -0.0348861 -0.0682652 0.000656 -2.26368 0.20098 0.110298 2650 
3084 1 -0.00712413 -0.0304845 -0.0679739 0.000656 -2.85799 -0.218083 0.299537 2650 
2574 1 -0.00884101 -0.0295878 -0.0680058 0.000423 -1.78164 -0.859424 0.23162 2650 
4026 1 -0.0114154 -0.0250789 -0.0679317 0.000116 2.57552 -0.440666 -0.432799 2650 
3096 1 -0.00487677 -0.0193917 -0.0684045 0.000423 -3.23398 -0.403634 0.230561 2650 
3089 1 -0.00602974 -0.0145649 -0.0683125 0.000423 -2.74587 -0.319195 0.24207 2650 
82 1 -0.00688935 -0.0135659 -0.0685387 0.000116 -1.80551 0.165206 0.181486 2650 
163 1 -0.00632863 -0.0137079 -0.0682854 0.000423 -1.74647 0.459908 0.162187 2650 
2282 1 -0.011037 -0.0129125 -0.0679942 0.000116 -3.14308 -0.255422 0.510192 2650 
1135 1 -0.00619529 -0.00984483 -0.0682976 0.000423 -1.54186 0.180263 0.139846 2650 
1461 1 -0.00287771 -0.00951887 -0.0685177 0.000423 -1.9112 0.512459 0.0802693 2650 
2246 1 -0.00236193 -0.00504235 -0.0685374 0.000423 -1.51266 -0.102263 0.0521291 2650 
3140 1 -0.0122969 -0.0380122 -0.0677776 0.000116 -1.64528 -0.151945 0.298505 2650 
3978 1 -0.0134627 -0.0344423 -0.0672436 0.000423 -2.04682 -0.0112858 0.40979 2650 
3079 1 -0.0117064 -0.0322376 -0.0673362 0.000656 -1.62185 0.227541 0.28196 2650 
3219 1 -0.0117055 -0.0273981 -0.0675717 0.000423 -2.81369 -0.467303 0.487416 2650 
2626 1 -0.014528 -0.0213094 -0.0673347 0.000116 1.14339 0.104116 -0.246695 2650 
1987 1 -0.0111024 -0.0205113 -0.0674381 0.000656 -1.12213 0.0614937 0.182998 2650 
21 1 -0.0125123 -0.00934688 -0.0674269 0.000423 -1.44575 0.500229 0.268286 2650 
2117 1 -0.011392 -0.00530908 -0.0676253 0.000423 -2.82672 0.145297 0.476185 2650 
2064 1 -0.0161728 -0.0384561 -0.0669587 0.000116 5.50839 -1.34532 -1.33046 2650 
3514 1 -0.015172 -0.0265756 -0.0666409 0.000656 -1.84036 -0.45599 0.418992 2650 
2183 1 -0.0182347 -0.0222765 -0.0664268 0.000116 -1.95175 -0.392855 0.535773 2650 
3692 1 -0.015914 -0.0227525 -0.0670206 0.000116 -1.33388 0.125677 0.316729 2650 
2238 1 -0.0149309 -0.0126233 -0.0669329 0.000423 -1.18342 0.614331 0.263988 2650 
1378 1 -0.0185666 -0.00997341 -0.0663348 0.000116 -3.08546 -0.177681 0.863599 2650 
433 1 -0.0182259 -0.0098452 -0.0665058 4.2e-05 -3.02629 -0.118707 0.829353 2650 
1208 1 -0.0184007 -0.00683314 -0.066361 4.2e-05 2.57346 -1.69042 -3.223 2650 
1649 1 -0.0183047 -0.000487059 -0.0664842 4.2e-05 -1.34886 0.152089 0.371373 2650 
2460 1 -0.0203071 -0.021438 -0.0655025 0.000423 -1.60742 -0.379839 0.498333 2650 
3887 1 -0.0236663 -0.039243 -0.064365 0.000423 -1.91403 -0.225795 0.703768 2650 
681 1 -0.0227907 -0.0382709 -0.0646802 0.000423 -1.89734 0.108947 0.668544 2650 
306 1 -0.0236912 -0.00123766 -0.0646819 0.000116 -1.59886 0.216459 0.585618 2650 
1239 1 -0.0254659 -0.0317812 -0.0636746 0.000423 5.2622 2.08607 -2.10456 2650 
3426 1 -0.0259538 -0.0309175 -0.0634774 0.000423 5.42032 2.46593 -2.21619 2650 
107 1 -0.0270289 -0.0137031 -0.0634401 4.2e-05 -2.78877 0.363619 1.18816 2650 
114 1 -0.0245245 -0.00218451 -0.0637946 0.000656 -2.58212 -0.139912 0.992641 2650 
940 1 -0.0280255 -0.014904 -0.0629253 0.000116 -3.57636 -0.226808 1.59283 2650 
4342 1 -0.0292403 -0.0104766 -0.0623701 0.000116 -2.39941 0.211771 1.12489 2650 
2803 1 -0.0303435 -0.0265866 -0.0618409 0.000116 2.26049 -0.724421 -1.10916 2650 
1170 1 -0.0288515 -0.0203114 -0.0619761 0.000116 0.141755 -0.662477 1.508 2650 
2014 1 -0.0285724 -0.0148223 -0.0623424 0.000423 -2.73719 0.183723 1.25449 2650 
3069 1 -0.0322676 -0.0152644 -0.0609427 4.2e-05 -1.45626 -0.42775 0.771051 2650 
4037 1 -0.032184 -0.00197576 -0.0609033 0.000116 -2.71214 -0.0729483 1.43321 2650 
1323 1 -0.031523 -0.0189473 -0.0606424 0.000656 0.276838 -0.137576 -0.143905 2650 
3314 1 -0.0323873 -0.0153798 -0.0604484 0.000423 -0.734481 1.2637 0.39352 2650 
2234 1 -0.0371118 -0.0370526 -0.0576686 0.000423 -1.81103 -0.000653724 1.16547 2650 
2232 1 -0.0381367 -0.0421188 -0.056996 0.000423 -1.41986 0.499793 0.950049 2650 
29 1 -0.0378933 -0.039757 -0.0571581 0.000423 -0.942546 1.06092 0.625802 2650 
295 1 -0.0399904 -0.0363515 -0.0560873 0.000116 0.164412 2.5538 -0.117226 2650 
2038 1 -0.0396326 -0.0134503 -0.0563408 0.000116 -2.05769 -0.426495 1.44747 2650 
1760 1 -0.0414938 -0.000374155 -0.055077 4.2e-05 -1.71162 0.248256 1.2895 2650 
2829 1 -0.0426165 -0.041993 -0.0541189 0.000116 -0.808433 -1.11271 0.636608 2650 
2245 1 -0.0421029 -0.0230432 -0.0541322 0.000423 -2.57471 0.224735 2.00255 2650 
3378 1 -0.0424678 -0.0135186 -0.0542357 0.000116 -0.927875 0.314726 0.726547 2650 
50 1 -0.0434249 -0.0208494 -0.0530775 0.000423 -0.810434 0.0388136 0.663049 2650 
1640 1 -0.043313 -0.00612218 -0.0536189 4.2e-05 -0.901334 0.260988 0.582243 2650 
2768 1 -0.0434293 -0.00629502 -0.053074 0.000423 -1.31555 -0.211652 1.07656 2650 
1914 1 -0.0444666 -0.0256162 -0.052208 0.000423 -1.09691 -0.0699121 0.934262 2650 
1111 1 -0.0448555 -0.0428609 -0.0515673 0.000656 -1.88471 0.283938 1.6394 2650 
3385 1 -0.0451019 -0.0296418 -0.0520657 0.000116 1.75441 -0.99855 -1.51976 2650 
4068 1 -0.0451213 -0.025753 -0.0516432 0.000423 -1.09757 -0.229909 0.95896 2650 
1690 1 -0.022428 -0.017918 -0.0515456 0.000423 -3.32665 -1.17568 -7.75772 2650 
3671 1 -0.0448188 -0.0042626 -0.0519059 0.000423 -1.45621 0.368412 1.25738 2650 
2002 1 -0.0453027 -0.001461 -0.0514841 0.000423 -1.49357 -0.0447108 1.31425 2650 
892 1 -0.0455174 -0.00371825 -0.050984 0.000656 -1.35764 -0.114045 1.21208 2650 
1964 1 -0.0466779 -0.00233943 -0.0506577 0.000116 -1.4498 -0.0334089 1.3359 2650 
2242 1 -0.0459542 -0.00109719 -0.0509035 0.000423 -1.48286 0.0748543 1.33868 2650 
2996 1 -0.046548 -0.0132217 -0.0503611 0.000423 -1.8498 0.137573 1.70974 2650 
417 1 -0.0473735 -0.00406648 -0.0500077 0.000116 -2.34541 0.0340763 2.22186 2650 
228 1 -0.0478269 -0.00927576 -0.0488241 0.000656 -1.81224 0.23546 1.77522 2650 
1723 1 -0.0487206 -0.00857922 -0.0486963 0.000116 -2.26734 -0.222891 2.26847 2650 
3779 1 -0.0495881 -0.00850837 -0.0473705 0.000423 -1.73671 -0.189395 1.81801 2650 
2062 1 -0.0475033 -0.00513635 -0.0465886 0.000116 -0.866896 -0.127766 3.31014 2650 
197 1 -0.0512219 -0.0150143 -0.046058 0.000116 -2.11173 -0.344973 2.34849 2650 
1792 1 -0.0508471 -0.0144697 -0.0460165 0.000423 -1.72189 -0.151731 1.90265 2650 
1320 1 -0.0513974 -0.00681413 -0.0459729 4.2e-05 3.96498 -0.950143 -4.43282 2650 
3399 1 -0.0521563 -0.0323168 -0.0451102 4.2e-05 4.54128 -1.21085 -5.25062 2650 
38 1 -0.0523724 -0.0111847 -0.0442728 0.000423 -1.51109 -0.292863 1.78754 2650 
1177 1 -0.0524754 -0.00899254 -0.0446246 0.000116 -1.78606 -0.676398 2.10028 2650 
4098 1 -0.0532819 -0.0280442 -0.0431739 0.000423 -0.875192 -0.305343 1.08009 2650 
3198 1 -0.0551884 -0.0355233 -0.0407086 0.000423 -0.138694 0.293534 0.188027 2650 
338 1 -0.0546876 -0.0232986 -0.0409935 0.000656 -1.54502 0.37096 2.06115 2650 
4210 1 -0.0551827 -0.0216148 -0.0407163 0.000423 -1.13673 0.174473 1.54061 2650 
1042 1 -0.0551197 -0.020277 -0.0408016 0.000423 -1.23691 0.570876 1.67175 2650 
3626 1 -0.054566 -0.00949203 -0.0404495 0.000656 -8.33214 -0.487586 -6.14312 2650 
1290 1 -0.0560771 -0.0303641 -0.0400048 0.000116 -0.901101 -2.37248 1.26313 2650 
3946 1 -0.0517997 -0.0435472 -0.0394358 4.2e-05 3.85303 -0.945178 -13.7519 2650 
1196 1 -0.0571854 -0.027065 -0.0384038 0.000116 -0.670328 -0.547175 0.998154 2650 
1994 1 -0.0571362 -0.0260632 -0.0379263 0.000423 -1.47456 -0.248112 2.22143 2650 
1206 1 -0.0571655 -0.0112673 -0.0385657 4.2e-05 -2.05865 -0.837001 3.05151 2650 
3602 1 -0.0575159 -0.0011301 -0.037907 0.000116 -1.19822 -0.0792323 1.81805 2650 
2765 1 -0.0573536 -0.0321918 -0.0375967 0.000423 -0.787423 0.550064 1.20121 2650 
2192 1 -0.0582744 -0.0143134 -0.0368413 4.2e-05 -1.74645 -0.791137 2.2108 2650 
2291 1 -0.0581844 -0.0140154 -0.0368727 0.000116 -1.56327 -0.195665 2.46682 2650 
3229 1 -0.0585524 -0.0218363 -0.035701 0.000423 0.438963 -0.103411 -0.719933 2650 
4069 1 -0.0585642 -0.0107015 -0.0356818 0.000423 -1.14524 0.144119 1.87967 2650 
2821 1 -0.059971 -0.033041 -0.0338895 0.000116 0.0957375 -0.751208 -0.169418 2650 
807 1 -0.0598361 -0.0147853 -0.0335051 0.000423 -1.48926 -0.184369 2.65964 2650 
2007 1 -0.0597776 -0.013679 -0.0336095 0.000423 -1.58184 -0.309653 2.81345 2650 
1275 1 -0.0606089 -0.0105346 -0.032735 0.000116 -1.56005 0.413711 2.88843 2650 
4293 1 -0.0604184 -0.00490405 -0.0324433 0.000423 -0.678351 0.411782 1.26328 2650 
3261 1 -0.0609012 -0.0021464 -0.0321881 0.000116 -0.473108 -0.105733 0.895139 2650 
287 1 -0.0609518 -0.000703598 -0.0320921 0.000116 -0.911933 -0.0502936 1.73201 2650 
3260 1 -0.0612861 -0.0362421 -0.0314489 0.000116 0.2555 -1.47497 -0.497906 2650 
2102 1 -0.0608343 -0.0251853 -0.0311511 0.000656 -1.09879 0.064036 2.14581 2650 
160 1 -0.0609029 -0.00970263 -0.0315243 0.000423 -1.24373 0.152995 2.40281 2650 
2911 1 -0.0610152 -0.00102021 -0.0313065 0.000423 -1.14349 0.241255 2.22862 2650 
2685 1 -0.0616455 -0.0176896 -0.0300464 0.000423 -0.489909 0.555885 1.00513 2650 
2480 1 -0.0621226 -0.0345371 -0.0297626 0.000116 -0.865236 1.36938 1.80598 2650 
3015 1 -0.0618059 -0.0263449 -0.0297151 0.000423 -1.065 0.153985 2.21513 2650 
42 1 -0.0602837 -0.0209401 -0.0298226 0.000423 4.18834 -0.241915 -6.9978 2650 
2898 1 -0.0622114 -0.0192773 -0.0288564 0.000423 -0.252575 0.135245 0.544525 2650 
3540 1 -0.0625593 -0.031102 -0.0280944 0.000423 1.60018 2.20225 -3.56321 2650 
3210 1 -0.0630465 -0.0107206 -0.0269831 0.000423 -1.23334 -0.0440284 2.88173 2650 
615 1 -0.0634279 -0.00425455 -0.0268687 0.000116 0.399138 0.158005 -0.942229 2650 
322 1 -0.0637527 -0.0229063 -0.026243 4.2e-05 1.15003 -0.777115 -3.05931 2650 
3622 1 -0.0631656 -0.0168011 -0.0261018 0.000656 -0.644359 0.251619 1.55933 2650 
3054 1 -0.0640182 -0.0292856 -0.0254301 0.000116 0.238113 -1.64804 -0.599431 2650 
897 1 -0.0641697 -0.0307786 -0.0241909 0.000423 -0.351947 0.596463 0.933589 2650 
4021 1 -0.0644895 -0.00766851 -0.0242101 0.000116 -1.03847 0.704857 2.76621 2650 
2527 1 -0.0648064 -0.00253581 -0.0235658 4.2e-05 2.41655 5.46086 -6.64557 2650 
2256 1 -0.0653389 -0.0434914 -0.0218141 0.000116 1.32916 0.466639 -3.98116 2650 
872 1 -0.0658138 -0.0151078 -0.0205854 4.2e-05 -0.954813 -0.18284 3.05264 2650 
186 1 -0.00386054 -0.00364167 -0.0209871 0.000116 -0.492734 -0.0738262 -2.47046 2650 
203 1 -0.0104749 -0.00404209 -0.0202744 0.000116 -1.60261 -0.0959355 -3.1019 2650 
2343 1 -0.0660311 -0.0165471 -0.0185159 0.000423 -0.590919 0.0207155 2.10734 2650 
1916 1 -0.0659328 -0.0156199 -0.0188631 0.000423 -0.757837 0.464387 2.64886 2650 
299 1 -0.06677 -0.013096 -0.0169348 0.000116 -0.770713 -0.350887 3.03874 2650 
606 1 -0.000183 0.00223902 -0.016592 0.000116 0 -0.011753 0 2650 
2520 1 -0.000266939 0.00468827 -0.0167236 4.2e-05 -0.0125271 0.0201098 0.013978 2650 
2172 1 -0.00341413 -0.00142251 -0.0163095 0.000116 0.0682862 0.00746542 -0.00852403 2650 
30 1 -0.00105734 -0.000468245 -0.0161096 0.000423 -0.0136125 -0.0214967 0.00834717 2650 
2013 1 -0.00287548 0.00292098 -0.0159935 0.000423 -0.00154235 0.00221798 0.00156406 2650 
1679 1 -0.00390039 0.00365967 -0.01598 0.000423 -0.00453729 0.0157155 0.00260015 2650 
2283 1 -0.00352121 0.00372372 -0.0164431 0.000116 -0.00010552 0.00956354 0.000789399 2650 
2301 1 -0.004222 0.00401202 -0.016305 4.2e-05 0 -0.011753 0 2650 
3121 1 -0.000913879 0.00516365 -0.0161983 0.000423 0.0292552 0.00121421 5.81941e-05 2650 
978 1 -0.00363963 0.0065469 -0.0162945 0.000116 0.0180122 -0.00353228 -0.00159853 2650 
3934 1 -0.001977 0.00700102 -0.016218 0.000116 0 -0.011753 0 2650 
3177 1 -0.000468629 0.00870346 -0.0158472 4.2e-05 0.00917698 -0.00185525 -0.00666376 2650 
289 1 -0.00281895 0.00970617 -0.0159903 0.000116 -0.00850769 0.000708308 0.0302001 2650 
1483 1 -0.000387019 0.0095543 -0.0159016 0.000423 -0.00134867 0.0112238 -0.0085204 2650 
3007 1 -0.00235193 0.0110127 -0.016113 0.000423 -0.0135196 -0.00505473 -0.0280609 2650 
3500 1 -0.00128772 0.0108013 -0.0161314 4.2e-05 -0.0454796 -0.00333034 0.0313479 2650 
371 1 -0.000521203 0.0104163 -0.0158217 0.000423 -0.00202239 0.0122439 -0.00806147 2650 
188 1 -0.00186494 0.0115502 -0.0164939 0.000116 -0.0148612 0.0228045 0.00418427 2650 
3644 1 -0.00115047 0.0128656 -0.0159975 0.000423 -0.000399523 0.00418678 0.0157329 2650 
2713 1 -0.000735404 0.0127576 -0.0163693 0.000116 0.00037122 0.035974 0.00535071 2650 
2924 1 -0.00467375 0.0138573 -0.015998 0.000116 -0.059039 0.0353164 0.00422158 2650 
148 1 -0.00372188 0.0335592 -0.016056 0.000423 -0.15418 -0.150743 0.0286835 2650 
4010 1 -0.00424979 0.0383567 -0.0160152 0.000116 -0.0944465 0.099748 0.0197066 2650 
945 1 -0.00482354 0.0500921 -0.016033 0.000116 -0.192436 -0.107086 0.0844573 2650 
509 1 -0.00737651 -0.000142064 -0.0151056 0.000116 -0.0177725 -0.00949189 -0.00542934 2650 
736 1 -0.00593466 -0.000266768 -0.0154369 0.000116 -0.0307431 -0.0170391 0.0144389 2650 
2399 1 -0.002418 0.00245302 -0.015541 0.000116 0 -0.011753 0 2650 
3637 1 -0.00468819 0.00318241 -0.0155989 0.000423 -0.0121297 0.0118194 -0.00377228 2650 
2438 1 -0.00582528 0.0072719 -0.0150451 0.000423 -0.00468347 -0.000292455 -0.00123863 2650 
3830 1 -0.006879 0.00855302 -0.015411 4.2e-05 0 -0.011753 0 2650 
233 1 -0.00429681 0.00921571 -0.0153117 0.000423 0.0114684 -0.00558491 0.0116559 2650 
2793 1 -0.0008369 0.00889628 -0.0151259 0.000423 0.0113251 0.0911454 -0.00570485 2650 
86 1 -0.00330714 0.0098025 -0.0150044 0.000116 -0.0196067 0.0126222 0.000798653 2650 
2969 1 -0.00202687 0.00959208 -0.0150947 0.000656 -0.00775713 0.0181674 -1.8219e-05 2650 
1617 1 -0.00115817 0.0100506 -0.0150795 0.000116 0.0304013 0.00375314 0.0183235 2650 
938 1 -0.00142496 0.00988314 -0.0154817 0.000116 -0.00119823 0.000558801 -0.00633771 2650 
1839 1 -0.00105224 0.0144546 -0.0153044 0.000116 -0.0676852 0.0211351 0.0188737 2650 
3393 1 -0.00831319 -0.00493999 -0.0149383 4.2e-05 -0.726006 -0.305782 -1.73308 2650 
2666 1 -0.00611557 -0.00245353 -0.0143467 0.000423 0.0429038 -0.00888448 0.00629481 2650 
269 1 -0.000421429 -0.00303123 -0.0143449 0.000423 -0.0067037 -0.0325502 -0.00931701 2650 
3989 1 -0.0669632 -0.00160369 -0.0147945 0.000423 -0.492005 0.0906153 2.22692 2650 
3470 1 -0.0673938 -0.00112377 -0.0142513 0.000116 0.114017 1.86574 -0.539182 2650 
1053 1 -0.007469 -0.00138898 -0.014946 0.000116 0 -0.011753 0 2650 
1991 1 -0.0067468 0.000358576 -0.0145583 0.000656 -0.019376 -0.00203791 0.00870126 2650 
3239 1 -0.00541722 0.00137961 -0.0147339 0.000116 -0.0248133 -0.00752354 0.0120924 2650 
857 1 -0.00204124 0.00169699 -0.0149639 0.000116 -0.0623021 0.0193526 0.00200378 2650 
150 1 -0.00753418 0.00291495 -0.0143508 0.000423 -0.0542472 0.016714 0.0257745 2650 
220 1 -0.00347807 0.00310856 -0.0143152 4.2e-05 0.00197382 0.00663681 0.00671825 2650 
1388 1 -0.00401982 0.00537958 -0.0146281 0.000116 -0.039288 0.0021603 0.0169103 2650 
3365 1 -0.002315 0.00487902 -0.014552 0.000116 0 -0.011753 0 2650 
4227 1 -0.000561055 0.00540636 -0.0148099 0.000116 0.00143204 -0.0228975 -0.0290312 2650 
2313 1 -0.00394145 0.00766057 -0.0143168 0.000656 0.0121795 0.0249345 0.010824 2650 
581 1 -0.00563819 0.00801502 -0.0145997 0.000423 0.000441693 0.00100922 0.00165067 2650 
2092 1 -0.00653791 0.00912168 -0.0148058 0.000656 -0.0381475 0.00403935 -0.0454126 2650 
3669 1 -5.22996e-05 0.0101478 -0.0148573 0.000423 0.00311727 -0.00583333 -0.00141597 2650 
1228 1 -0.00164171 0.0111476 -0.0149724 0.000423 -0.0026547 0.0243513 0.000515369 2650 
4231 1 -0.00110322 0.0177719 -0.0148516 0.000116 -0.0134934 0.0153003 0.0304581 2650 
3279 1 -0.00167776 0.0461888 -0.0147517 0.000116 0.0698602 -0.118112 -0.0910458 2650 
2021 1 -0.00688556 0.0551739 -0.014325 0.000423 0.132959 -0.0939981 -0.0898992 2650 
2827 1 -0.00627247 -0.00323542 -0.0138427 0.000116 0.00705037 -0.0435835 0.021739 2650 
623 1 -0.0074684 -0.000116478 -0.0135937 0.000116 -0.0192086 -0.00896372 0.0230222 2650 
2332 1 -0.00519455 -0.000463554 -0.0136805 0.000423 -0.0114447 -0.00779769 0.00753018 2650 
2922 1 -0.00731005 0.00139031 -0.0139037 0.000116 -0.00925852 -0.000802711 0.00675368 2650 
676 1 -0.00442876 0.00225972 -0.0135845 0.000423 -0.0128147 0.00889048 0.0204924 2650 
2512 1 -0.00807019 0.00285244 -0.0134918 0.000116 0.018779 -0.0192413 0.00230208 2650 
3587 1 -0.00789938 0.00337926 -0.0140106 0.000116 -0.0579635 0.0255056 0.0285778 2650 
1032 1 -0.0060154 0.0032615 -0.0135351 0.000423 0.0299121 -0.00820922 0.0127278 2650 
1684 1 -0.000102108 0.00333399 -0.0137708 0.000423 -0.00348729 -0.0115683 0.00145358 2650 
2913 1 -0.00886825 0.00500062 -0.0137118 0.000116 -0.0140945 -0.0228944 -0.00540615 2650 
1192 1 -0.0064475 0.00504031 -0.0138436 0.000116 -0.0160738 0.0171838 -0.0228619 2650 
2344 1 -0.000472136 0.00545723 -0.0139397 0.000423 0.00575909 -0.0231993 -0.0217047 2650 
2322 1 -0.0089517 0.00628746 -0.0135296 0.000656 -0.00551701 -0.0136996 -0.00131915 2650 
2918 1 -0.00734977 0.0061247 -0.0139899 0.000116 0.0149777 0.0131491 0.0124233 2650 
1611 1 -0.00485102 0.00572488 -0.0140096 0.000116 0.0134772 -0.0209987 -0.0751807 2650 
1288 1 -0.002467 0.00618202 -0.014044 0.000116 0 -0.011753 0 2650 
3515 1 -0.00798891 0.00709263 -0.0139542 0.000656 -0.0102256 -0.00951753 -0.000478524 2650 
963 1 -0.00708026 0.00709727 -0.0140773 0.000116 0.00350227 -0.00324664 0.0156587 2650 
1618 1 -0.0100055 0.00744833 -0.0135171 0.000116 0.0059414 0.00192455 -0.00369393 2650 
2222 1 -0.000759664 0.00769188 -0.0138921 0.000423 0.00111949 0.00196985 0.02247 2650 
3702 1 -0.00026646 0.00732821 -0.0137683 0.000116 0.068038 -0.000891572 -0.0314572 2650 
1250 1 -0.00852745 0.0079102 -0.0134308 0.000423 -0.00730125 -0.00574558 -0.000431452 2650 
4257 1 -0.00790613 0.00793796 -0.0135879 0.000116 -0.00578911 -0.00907208 0.00958653 2650 
1769 1 -0.00748416 0.00859 -0.0139846 0.000656 -0.0173488 -0.0031465 -0.00602587 2650 
1237 1 -0.00934296 0.00893838 -0.0134864 0.000423 0.00205875 0.0105454 -1.45263e-05 2650 
4190 1 -0.00854091 0.00880579 -0.01409 0.000423 0.00475473 0.00488139 -0.00345892 2650 
1476 1 -0.00720976 0.00989959 -0.0134351 0.000423 -0.00473027 0.00118609 -0.000138689 2650 
1827 1 -0.00682594 0.0102296 -0.0137304 0.000116 0.0104858 0.011057 0.025833 2650 
1409 1 -0.00044 0.00996202 -0.013868 0.000116 0 -0.011753 0 2650 
70 1 -0.0070022 0.0104103 -0.0134941 0.000116 0.0761437 -0.00792403 -0.102211 2650 
2781 1 -0.0059877 0.0103506 -0.0137863 0.000423 -0.00287998 0.011096 -0.0317373 2650 
2182 1 -0.000426596 0.0106841 -0.0140757 0.000116 -0.0273815 0.022445 -0.0411396 2650 
3150 1 -0.000619556 0.0108639 -0.0135416 0.000116 -0.0182263 -0.0087302 -0.0269448 2650 
2466 1 -0.00794394 0.0196722 -0.0137793 0.000423 0.048327 0.0396991 -0.0547289 2650 
1195 1 -0.00795781 0.0281731 -0.0137444 0.000116 0.0557766 0.0782116 -0.0138054 2650 
2643 1 -0.00589966 0.0306639 -0.0137872 0.000656 -0.0823633 0.0688822 0.0201377 2650 
410 1 -0.0676776 -0.00983393 -0.0128359 0.000116 -0.527014 0.782631 2.77869 2650 
4097 1 -0.0077661 -0.00302518 -0.0129772 0.000423 0.0222564 -0.0142204 -0.0225559 2650 
3576 1 -0.00552923 -0.00149128 -0.0127467 0.000116 0.0561059 0.00120064 -0.0311085 2650 
3599 1 -0.00173979 -0.00118666 -0.0129982 0.000116 0.00758272 -0.00512374 -0.0536854 2650 
3191 1 -0.00870503 -0.000309693 -0.0127 0.000656 -0.0137519 -0.00733615 -0.00341624 2650 
1022 1 -0.00349321 -0.000783054 -0.0127851 0.000423 -0.00789737 0.00635626 0.0363748 2650 
3477 1 -0.00521515 0.000452478 -0.0126679 0.000116 0.0183398 -0.0587002 0.0125841 2650 
2525 1 -0.004063 0.000409019 -0.013231 4.2e-05 0 -0.011753 0 2650 
4126 1 -0.00681964 0.000791367 -0.0129484 0.000116 -0.0261531 0.0084042 0.00402279 2650 
2619 1 -0.005851 0.00122502 -0.012854 0.000116 0 -0.011753 0 2650 
3880 1 -0.0102775 0.00214108 -0.0129135 0.000423 -0.018071 -0.00984006 -0.0180785 2650 
2609 1 -0.00886 0.00194902 -0.013248 0.000116 0 -0.011753 0 2650 
4165 1 -0.0051932 0.00158331 -0.013089 0.000656 -0.00303534 -0.0330669 0.0101716 2650 
3917 1 -0.003984 0.00271002 -0.012703 0.000116 0 -0.011753 0 2650 
2059 1 -0.003583 0.00291902 -0.012756 0.000116 0 -0.011753 0 2650 
3316 1 -0.00935386 0.00339981 -0.0129802 0.000423 -0.00544519 -0.0183171 -0.00879554 2650 
1171 1 -0.00767743 0.0033404 -0.0131634 0.000116 0.0131753 -0.0110464 0.0150896 2650 
4300 1 -0.00117378 0.00328306 -0.0126484 0.000423 0.0464595 0.0171624 -0.0680193 2650 
3787 1 -0.00663265 0.00416665 -0.0128451 0.000116 -0.0024271 -0.00223267 -0.0195234 2650 
3446 1 -0.00133798 0.00445424 -0.0129009 0.000423 0.014297 -0.016402 -0.00312272 2650 
1427 1 -0.002948 0.00525002 -0.013376 4.2e-05 0 -0.011753 0 2650 
3362 1 -0.00263334 0.00488422 -0.0126447 0.000116 0.000350619 -0.00253681 -0.00404217 2650 
4078 1 -0.0104559 0.00587585 -0.0126573 0.000423 -0.000913784 0.00267709 0.00687214 2650 
2912 1 -0.00547238 0.00595418 -0.0131521 0.000116 0.00196064 0.0151142 0.00117299 2650 
445 1 -0.00998468 0.00707333 -0.0128415 0.000656 -0.00770604 -0.00218208 -0.00473086 2650 
3259 1 -0.00887815 0.00681178 -0.0127564 0.000116 0.00136236 -0.0113258 0.00321419 2650 
4179 1 -0.0078141 0.00694672 -0.0128973 0.000423 -0.0070231 -0.0226882 -0.00131956 2650 
3364 1 -0.0066258 0.00709249 -0.0126866 0.000116 -0.00179506 0.0163753 -0.0232219 2650 
1795 1 -0.00895742 0.00749675 -0.0127793 0.000423 -0.00333027 -0.00705618 0.0037936 2650 
2483 1 -0.00742899 0.0085032 -0.0129867 0.000116 0.0222317 -0.00887276 -0.000700143 2650 
205 1 -0.000744 0.00796602 -0.01334 0.000116 0 -0.011753 0 2650 
450 1 -0.0054613 0.00897321 -0.012635 0.000656 0.013211 0.0358504 0.00701127 2650 
3847 1 -0.00946068 0.00985732 -0.0129186 0.000656 0.00218348 0.0145646 -0.00497691 2650 
2453 1 -0.00621971 0.00994683 -0.0129916 0.000423 0.00287214 0.0261989 -0.0126472 2650 
1775 1 -0.00823523 0.010766 -0.0130756 0.000423 -0.000575409 -0.0115316 -0.00160845 2650 
1986 1 -0.00233484 0.0109754 -0.0128915 0.000656 0.00762539 0.0149956 0.0116892 2650 
3838 1 -0.00569704 0.0115066 -0.0127159 0.000656 0.0059045 0.0308137 -0.0288407 2650 
3163 1 -0.00755694 0.012159 -0.0134158 0.000116 -0.0370466 0.0283549 -0.0433006 2650 
1802 1 -0.00369365 0.0124262 -0.013047 0.000423 0.00500259 -0.000364755 -0.0111755 2650 
949 1 -0.00799115 0.0133229 -0.0132519 0.000116 -0.0176518 0.0277962 -0.00593252 2650 
478 1 -0.00641799 0.0151677 -0.0132891 0.000423 0.0184535 0.00116934 0.020279 2650 
1143 1 -0.000203193 0.0154332 -0.0130624 0.000423 0.0070315 0.0110531 -0.00616027 2650 
1717 1 -0.00272803 0.0246811 -0.0130106 0.000116 -0.014717 0.0706098 -0.0348682 2650 
4234 1 -0.00394617 0.0289099 -0.0132501 0.000116 -0.0277623 0.0670651 -0.0707711 2650 
352 1 -0.00183767 0.0334876 -0.0131235 0.000423 0.0736471 -0.159457 0.0441779 2650 
1124 1 -0.00389007 0.0356025 -0.0133612 0.000423 0.115227 0.0704534 -0.0460588 2650 
3352 1 -0.0109168 0.0565153 -0.0126829 0.000116 -0.730478 -0.00648521 0.536414 2650 
1683 1 -0.0674922 -0.01195 -0.0121554 0.000423 -0.52501 0.570731 2.9151 2650 
1763 1 -0.001143 -0.00290498 -0.012442 0.000656 0 -0.011753 0 2650 
1422 1 -0.003881 -0.00105898 -0.012349 4.2e-05 0 -0.011753 0 2650 
2468 1 -0.00760508 -0.000298106 -0.0121142 0.000423 -0.0504222 0.0211365 0.000191011 2650 
1799 1 -0.00322458 -0.000257565 -0.0120529 0.000423 7.10678e-05 -0.0118308 4.63239e-05 2650 
3551 1 -0.00767393 0.000669215 -0.0125497 0.000423 -0.015336 0.00523015 0.00637389 2650 
3389 1 -0.010415 0.00120702 -0.012026 0.000116 0 -0.011753 0 2650 