ITEM: TIMESTEP
615486
ITEM: NUMBER OF ATOMS
4382
ITEM: BOX BOUNDS ff ff ff
-0.15 0.15
-0.15 0.06
-0.15 0.15
ITEM: ATOMS id type x y z radius vx vy vz density 
741 1 -0.000659081 -0.0509505 -0.068881 0.000116 -2.99183 -1.85272 0.028627 2650 
1845 1 -0.0272458 -0.0561026 -0.0632668 0.000116 -2.02049 -2.41589 0.870122 2650 
3810 1 -0.0575593 -0.0521797 -0.0378411 0.000116 -1.99005 0.257933 3.02702 2650 
1270 1 -0.00181313 -0.0223783 -0.0688603 0.000116 -4.85612 3.07562 0.127864 2650 
2317 1 -0.0133834 -0.0170006 -0.0670231 0.000656 -3.05763 -0.680776 0.610558 2650 
208 1 -0.0344115 -0.00868608 -0.0570498 0.000116 -1.54274 -0.416375 3.21333 2650 
843 1 -0.0390491 -0.011135 -0.0548575 0.000116 -6.15271 -0.666294 -8.37006 2650 
3143 1 -0.0260877 -0.0383594 -0.0469505 0.000116 -4.09011 -2.14109 -7.41859 2650 
4353 1 -0.0105195 -0.00806968 -0.03333 0.000116 -1.72213 -0.484191 -5.20767 2650 
3330 1 -0.014873 -0.00966283 -0.0294796 0.000423 -2.31366 -0.604267 -4.29735 2650 
734 1 -0.0125469 -0.0095129 -0.0280213 0.000116 -1.96087 -0.557708 -4.10546 2650 
4187 1 -0.00360843 -0.00728105 -0.0218861 0.000423 -0.50811 -0.715157 -2.35182 2650 
1957 1 -0.00316449 -0.00349649 -0.0199389 0.000116 -0.377196 -0.0503836 -2.37665 2650 
821 1 -0.00961113 -0.00453507 -0.0187012 0.000423 -1.23185 -0.208869 -2.39476 2650 
2806 1 -0.0041413 -0.00453222 -0.0168133 0.000116 -0.572426 -0.282064 -1.31472 2650 
606 1 -0.000183 0.00514967 -0.016592 0.000116 0 -0.011753 0 2650 
3503 1 -0.000129463 0.0111344 -0.0167577 4.2e-05 0.0522496 -0.102958 -0.0636393 2650 
2713 1 -0.000763 0.0121207 -0.016767 0.000116 0 -0.011753 0 2650 
691 1 -0.00105428 -0.00318606 -0.015807 0.000423 -0.0520749 -0.0559449 -0.00679066 2650 
4116 1 -0.004072 -0.000507332 -0.016193 0.000116 0 -0.011753 0 2650 
93 1 -0.00354 -9.63316e-05 -0.016299 0.000116 0 -0.011753 0 2650 
1991 1 -0.002768 0.00148267 -0.01599 0.000656 0 -0.011753 0 2650 
508 1 -0.0011245 0.00154239 -0.015933 0.000116 0.294847 0.371723 -0.00855989 2650 
736 1 -0.003429 0.00307467 -0.016474 0.000116 0 -0.011753 0 2650 
3645 1 -0.0012965 0.00349053 -0.0160718 0.000423 -0.018024 0.00762956 0.0274716 2650 
2013 1 -0.003166 0.00425367 -0.016002 0.000423 0 -0.011753 0 2650 
3546 1 -0.002797 0.00621167 -0.016252 0.000423 0 -0.011753 0 2650 
2301 1 -0.004222 0.00692267 -0.016305 4.2e-05 0 -0.011753 0 2650 
188 1 -0.00068 0.00669167 -0.016516 0.000116 0 -0.011753 0 2650 
3616 1 -0.000938 0.00748667 -0.016074 4.2e-05 0 -0.011753 0 2650 
728 1 -0.00269111 0.00843303 -0.0163014 0.000116 -0.0974289 0.166407 -0.102141 2650 
3934 1 -0.001977 0.00991167 -0.016218 0.000116 0 -0.011753 0 2650 
1357 1 -0.00268292 0.0115812 -0.0162437 0.000423 -0.179373 0.15238 -0.0359714 2650 
3329 1 -8.55152e-05 -0.00315548 -0.0157431 0.000423 -0.0339906 -0.108419 0.155858 2650 
4038 1 -0.00016513 -0.00273919 -0.0153262 0.000116 0.0782853 0.000193396 0.168806 2650 
3441 1 -0.005522 -0.00217333 -0.01502 0.000423 0 -0.011753 0 2650 
3733 1 -0.00239236 -0.000802851 -0.0152407 0.000656 -0.00231757 -0.013879 0.00177661 2650 
330 1 -0.001698 -0.000832332 -0.015557 4.2e-05 0 -0.011753 0 2650 
2965 1 -2.2e-05 -0.000526332 -0.015341 4.2e-05 0 -0.011753 0 2650 
1679 1 -0.00364871 0.00370422 -0.0153792 0.000423 0.00305589 -0.00234253 -0.00398464 2650 
1569 1 -0.00162521 0.00376319 -0.0153052 0.000423 -0.0214881 0.00570095 0.0411068 2650 
1059 1 -0.00663176 0.00441676 -0.015379 0.000116 -0.00283744 0.0139983 0.106712 2650 
3147 1 -0.00171258 0.00427427 -0.015154 0.000116 -0.00706837 0.0221131 0.0132401 2650 
2399 1 -0.002418 0.00536367 -0.015541 0.000116 0 -0.011753 0 2650 
3322 1 -0.00419466 0.00588551 -0.0150408 0.000423 -0.0209456 -0.0191109 -0.033031 2650 
4296 1 -0.0015663 0.00594313 -0.0155281 0.000423 -0.000356005 -0.0132873 -0.00240934 2650 
3789 1 -0.00259046 0.00649187 -0.0152778 0.000116 0.0751661 -0.205537 -0.0399781 2650 
1986 1 -0.00416647 0.0072365 -0.0156171 0.000656 -0.00578738 0.0209481 -0.0282702 2650 
978 1 -0.005372 0.00860967 -0.015286 0.000116 0 -0.011753 0 2650 
2969 1 -0.001381 0.00793367 -0.015354 0.000656 0 -0.011753 0 2650 
2250 1 -0.00197142 0.0100666 -0.0152585 0.000423 -0.155375 0.0227889 0.0380727 2650 
3177 1 -0.001068 0.0109677 -0.015412 4.2e-05 0 -0.011753 0 2650 
3830 1 -0.006879 0.0114637 -0.015411 4.2e-05 0 -0.011753 0 2650 
86 1 -0.002064 0.0111677 -0.015055 0.000116 0 -0.011753 0 2650 
884 1 -0.00438135 0.0118991 -0.0152866 0.000656 -0.0378318 0.0387573 -0.0430688 2650 
938 1 -0.000869 0.0123737 -0.015416 0.000116 0 -0.011753 0 2650 
3632 1 -0.006134 0.0130897 -0.015144 0.000423 0 -0.011753 0 2650 
3294 1 -0.00534301 0.0209806 -0.0151231 0.000656 -0.153178 0.532354 -0.151969 2650 
2256 1 -0.001753 -0.00272233 -0.014775 0.000116 0 -0.011753 0 2650 
747 1 -0.001416 -0.00270233 -0.014317 0.000116 0 -0.011753 0 2650 
3502 1 -0.001236 -0.00172733 -0.014816 4.2e-05 0 -0.011753 0 2650 
1640 1 -0.001358 -0.000394332 -0.014495 4.2e-05 0 -0.011753 0 2650 
2313 1 -0.005044 0.000449668 -0.014923 0.000656 0 -0.011753 0 2650 
2413 1 -0.003433 0.000287668 -0.014868 4.2e-05 0 -0.011753 0 2650 
1053 1 -0.007469 0.00152167 -0.014946 0.000116 0 -0.011753 0 2650 
2332 1 -0.003268 0.00181267 -0.014853 0.000423 0 -0.011753 0 2650 
3239 1 -0.002155 0.00173167 -0.014442 0.000116 0 -0.011753 0 2650 
1589 1 -0.00797439 0.00352147 -0.01424 0.000423 -0.0647442 0.0335493 0.0762813 2650 
2547 1 -0.00692831 0.00356142 -0.0149539 0.000423 -0.044095 0.0528746 0.0464883 2650 
2701 1 -0.00388855 0.00458849 -0.0149872 0.000116 0.0331549 0.247236 -0.00676049 2650 
220 1 -0.003649 0.00442667 -0.014897 4.2e-05 0 -0.011753 0 2650 
104 1 -0.00218 0.00467567 -0.014554 4.2e-05 0 -0.011753 0 2650 
3121 1 -0.007407 0.00524567 -0.014654 0.000423 0 -0.011753 0 2650 
4165 1 -0.00561878 0.00492287 -0.0149419 0.000656 -0.00960923 0.0142793 -0.0281222 2650 
2763 1 -0.0025821 0.00698611 -0.0143995 0.000423 0.119869 -0.206142 0.149591 2650 
2438 1 -0.005612 0.00772467 -0.014612 0.000423 0 -0.011753 0 2650 
3365 1 -0.002315 0.00778967 -0.014552 0.000116 0 -0.011753 0 2650 
3564 1 -0.000147 0.00715267 -0.014738 0.000423 0 -0.011753 0 2650 
713 1 -0.0041407 0.00828877 -0.0146147 0.000423 -0.0333908 0.0368981 0.0147375 2650 
4190 1 -0.007319 0.00945967 -0.014559 0.000423 0 -0.011753 0 2650 
3515 1 -0.00474311 0.00979665 -0.0147664 0.000656 -0.002104 -0.0107719 -0.00140178 2650 
371 1 -0.000507 0.0110427 -0.014221 0.000423 0 -0.011753 0 2650 
1228 1 -0.001302 0.0112447 -0.014946 0.000423 0 -0.011753 0 2650 
1943 1 -0.002925 -0.00317633 -0.01374 0.000116 0 -0.011753 0 2650 
3229 1 -0.006614 -0.00260433 -0.01374 0.000423 0 -0.011753 0 2650 
327 1 -0.003849 -0.00248433 -0.013874 4.2e-05 0 -0.011753 0 2650 
2705 1 -0.001432 -0.00266533 -0.013674 0.000116 0 -0.011753 0 2650 
3156 1 -0.000558158 -0.0030987 -0.013995 0.000116 0.1015 -0.252562 0.115309 2650 
2939 1 -0.008405 -0.00168133 -0.013483 0.000116 0 -0.011753 0 2650 
3622 1 -0.005521 -0.00184033 -0.013445 0.000656 0 -0.011753 0 2650 
3295 1 -0.00197726 -0.00174164 -0.014107 0.000656 -0.0326807 -0.0261897 -0.0816896 2650 
1393 1 -0.009523 -0.00137733 -0.013534 0.000116 0 -0.011753 0 2650 
3303 1 -0.00659707 -0.000321816 -0.014183 0.000656 -0.0119966 -0.0726635 -0.0251966 2650 
2783 1 -0.003328 -0.000342332 -0.013758 0.000423 0 -0.011753 0 2650 
4126 1 -0.001667 -0.000269332 -0.013741 0.000116 0 -0.011753 0 2650 
3778 1 -0.003893 0.00117467 -0.013816 0.000423 0 -0.011753 0 2650 
1620 1 -0.008456 0.00319367 -0.013856 0.000116 0 -0.011753 0 2650 
3587 1 -0.006279 0.00445067 -0.013694 0.000116 0 -0.011753 0 2650 
1219 1 -0.00489827 0.00416357 -0.0140195 0.000656 0.035204 0.0225104 -0.0281999 2650 
2485 1 -0.006627 0.00479767 -0.014195 0.000116 0 -0.011753 0 2650 
1327 1 -0.00705683 0.00684622 -0.013859 0.000656 -0.243855 0.0891654 -0.0259286 2650 
3035 1 -0.00875 0.00739667 -0.013893 0.000116 0 -0.011753 0 2650 
2777 1 -0.00451685 0.00765581 -0.0137873 0.000423 -0.0600041 0.0325706 0.0604979 2650 
1288 1 -0.002467 0.00909267 -0.014044 0.000116 0 -0.011753 0 2650 
1974 1 -0.0021 0.00981367 -0.01365 4.2e-05 0 -0.011753 0 2650 
171 1 -0.001998 0.00971467 -0.013459 0.000116 0 -0.011753 0 2650 
2222 1 -0.000169 0.00972167 -0.014111 0.000423 0 -0.011753 0 2650 
581 1 -0.005568 0.0106137 -0.014167 0.000423 0 -0.011753 0 2650 
4314 1 -0.0025127 0.0110493 -0.0137809 0.000423 -0.092085 0.0376702 0.0423056 2650 
1346 1 -0.00151833 0.0110093 -0.0139302 0.000423 0.0112383 0.146251 0.0960885 2650 
1476 1 -0.006941 0.0118927 -0.013435 0.000423 0 -0.011753 0 2650 
3669 1 -0.000597 0.0119987 -0.014068 0.000423 0 -0.011753 0 2650 
1409 1 -0.00044 0.0128727 -0.013868 0.000116 0 -0.011753 0 2650 
1525 1 -0.00516405 0.0184126 -0.0134875 0.000116 0.0348354 0.358887 0.286739 2650 
634 1 -0.0276806 -0.0195752 -0.0131436 0.000116 -4.45804 -1.11899 -2.08441 2650 
428 1 -0.00922 -0.00263533 -0.013206 0.000116 0 -0.011753 0 2650 
3015 1 -0.008364 -0.00269033 -0.013043 0.000423 0 -0.011753 0 2650 
827 1 -0.005975 -0.00280833 -0.013005 0.000116 0 -0.011753 0 2650 
167 1 -0.004273 -0.00265033 -0.012826 0.000116 0 -0.011753 0 2650 
2732 1 -0.002992 -0.00271533 -0.013183 0.000116 0 -0.011753 0 2650 
3633 1 -0.00941 -0.00211133 -0.013111 0.000423 0 -0.011753 0 2650 
1487 1 -0.004643 -0.00224133 -0.013241 0.000116 0 -0.011753 0 2650 
2685 1 -0.00722018 -0.0011695 -0.0131754 0.000423 -0.0312052 -0.0791633 0.0473875 2650 
1924 1 -0.0100687 -9.16595e-05 -0.0128244 0.000423 0.0334069 -0.0298079 -0.0209806 2650 
4056 1 -0.00575074 -0.000451136 -0.0129526 0.000656 0.0636768 -0.0676397 -0.0298947 2650 
249 1 -0.00900766 0.000254712 -0.0130338 0.000423 -0.143019 -0.0673045 0.0687494 2650 
3551 1 -0.005293 0.00123367 -0.013215 0.000423 0 -0.011753 0 2650 
1901 1 -0.00309357 0.00126489 -0.012767 0.000423 -0.0507742 -0.0533762 0.0503681 2650 
1125 1 -0.000165 0.00182067 -0.013134 0.000423 0 -0.011753 0 2650 
4371 1 -0.000719 0.00263167 -0.012831 0.000116 0 -0.011753 0 2650 
2283 1 -0.000701 0.00294667 -0.012847 0.000116 0 -0.011753 0 2650 
2253 1 -0.00454028 0.00351953 -0.0128112 0.000423 0.0920831 0.035812 0.016033 2650 
2525 1 -0.004063 0.00331967 -0.013231 4.2e-05 0 -0.011753 0 2650 
1595 1 -0.007474 0.00397767 -0.012756 0.000423 0 -0.011753 0 2650 
2619 1 -0.005851 0.00413567 -0.012854 0.000116 0 -0.011753 0 2650 
3880 1 -0.010277 0.00505167 -0.012913 0.000423 0 -0.011753 0 2650 
2609 1 -0.00886 0.00485967 -0.013248 0.000116 0 -0.011753 0 2650 
2194 1 -0.002781 0.00527367 -0.012701 4.2e-05 0 -0.011753 0 2650 
2918 1 -0.00757 0.00621067 -0.012948 0.000116 0 -0.011753 0 2650 
933 1 -0.00751895 0.00561589 -0.013153 0.000423 -0.205621 0.0138782 0.00393424 2650 
3917 1 -0.003984 0.00562067 -0.012703 0.000116 0 -0.011753 0 2650 
2059 1 -0.003583 0.00582967 -0.012756 0.000116 0 -0.011753 0 2650 
4241 1 -0.00121 0.00570467 -0.012987 0.000116 0 -0.011753 0 2650 
4078 1 -0.00615934 0.00769802 -0.0128864 0.000423 0.00857929 -0.00141245 0.000608999 2650 
2322 1 -0.00688016 0.00836184 -0.0133371 0.000656 -0.0098008 -0.00183935 -0.00563968 2650 
1427 1 -0.002948 0.00816067 -0.013376 4.2e-05 0 -0.011753 0 2650 
3259 1 -0.008055 0.00922567 -0.013388 0.000116 0 -0.011753 0 2650 
4318 1 -0.007675 0.00889967 -0.012829 0.000423 0 -0.011753 0 2650 
1795 1 -0.008775 0.0101597 -0.012959 0.000423 0 -0.011753 0 2650 
1769 1 -0.004822 0.0100807 -0.013243 0.000656 0 -0.011753 0 2650 
205 1 -0.000744 0.0108767 -0.01334 0.000116 0 -0.011753 0 2650 
4365 1 -0.00382784 0.0115374 -0.0128555 0.000116 -0.0372545 0.279327 0.100572 2650 
4160 1 -0.006657 0.0132427 -0.013271 4.2e-05 0 -0.011753 0 2650 
1775 1 -0.008218 0.0135517 -0.012996 0.000423 0 -0.011753 0 2650 
3644 1 -0.000733 0.0135477 -0.013392 0.000423 0 -0.011753 0 2650 
2722 1 -0.00898325 0.0197603 -0.0131127 0.000116 -0.375324 0.405951 -0.00725073 2650 
615 1 -0.0105742 0.0244169 -0.0131502 0.000116 1.82132 -2.45857 -1.57881 2650 
2957 1 -0.010592 -0.00243133 -0.012102 4.2e-05 0 -0.011753 0 2650 
4068 1 -0.001953 -0.00294933 -0.012327 0.000423 0 -0.011753 0 2650 
868 1 -0.000201 -0.00248133 -0.012301 0.000116 0 -0.011753 0 2650 
2238 1 -0.00701 -0.00221733 -0.01254 0.000423 0 -0.011753 0 2650 
4150 1 -0.001319 -0.00210633 -0.012208 0.000116 0 -0.011753 0 2650 
3261 1 -0.010456 -0.00125733 -0.012294 0.000116 0 -0.011753 0 2650 
3200 1 -0.00612719 -0.0014121 -0.0125069 0.000423 -0.0037223 -0.0499527 0.010669 2650 
2819 1 -0.007468 -0.000121332 -0.012046 0.000116 0 -0.011753 0 2650 
3385 1 -0.00397016 -0.000250182 -0.0122745 0.000116 0.12168 -0.317561 0.11261 2650 
2468 1 -0.003167 -0.000282332 -0.012131 0.000423 0 -0.011753 0 2650 
545 1 -0.002328 -0.000655332 -0.012432 4.2e-05 0 -0.011753 0 2650 
950 1 -0.010031 0.000610668 -0.011866 0.000116 0 -0.011753 0 2650 
250 1 -0.00941295 0.000156722 -0.0122714 0.000423 -0.0890212 -0.0320774 0.165991 2650 
1763 1 -0.001143 5.66844e-06 -0.012442 0.000656 0 -0.011753 0 2650 
3643 1 -0.00431142 0.0010619 -0.0121724 0.000423 0.00104772 -0.00904669 0.00573747 2650 
3637 1 -0.002026 0.00118467 -0.012108 0.000423 0 -0.011753 0 2650 
3411 1 -0.0100794 0.00202633 -0.0123682 0.000656 -0.0844869 0.0381718 -0.0445825 2650 
623 1 -0.005429 0.00235867 -0.012246 0.000116 0 -0.011753 0 2650 
1422 1 -0.003881 0.00185167 -0.012349 4.2e-05 0 -0.011753 0 2650 
1799 1 -0.003237 0.00266667 -0.012061 0.000423 0 -0.011753 0 2650 
2813 1 -1e-05 0.00251867 -0.012237 0.000116 0 -0.011753 0 2650 
3956 1 -0.008956 0.00343767 -0.012273 0.000656 0 -0.011753 0 2650 
3201 1 -0.0038537 0.00353012 -0.0120336 0.000423 0.0982966 0.0107837 0.0662699 2650 
2690 1 -0.000333 0.00328967 -0.012265 0.000423 0 -0.011753 0 2650 
3389 1 -0.010415 0.00411767 -0.012026 0.000116 0 -0.011753 0 2650 
856 1 -0.00389 0.00433667 -0.0119 0.000116 0 -0.011753 0 2650 
1657 1 -0.00856916 0.00531302 -0.0120117 0.000656 -0.00770092 -0.0112608 -0.00233815 2650 
411 1 -0.009436 0.00578567 -0.012079 0.000116 0 -0.011753 0 2650 
3826 1 -0.009208 0.00601267 -0.012552 0.000116 0 -0.011753 0 2650 
2471 1 -0.006907 0.00561628 -0.0119799 0.000423 -0.0907234 0.0202287 0.0449903 2650 
3316 1 -0.008979 0.00676567 -0.012376 0.000423 0 -0.011753 0 2650 
1261 1 -0.007462 0.00666967 -0.012403 0.000423 0 -0.011753 0 2650 
3362 1 -0.002672 0.00677867 -0.012199 0.000116 0 -0.011753 0 2650 
3446 1 -0.002592 0.00777267 -0.012627 0.000423 0 -0.011753 0 2650 
1590 1 -0.008874 0.00795967 -0.012037 0.000423 0 -0.011753 0 2650 
4066 1 -0.00626064 0.00823407 -0.0119112 0.000656 -0.00432864 0.007729 0.025362 2650 
3030 1 -0.001189 0.00827567 -0.012596 0.000116 0 -0.011753 0 2650 
70 1 -0.010029 0.00920067 -0.01242 0.000116 0 -0.011753 0 2650 
191 1 -0.011348 0.00959667 -0.012254 0.000116 0 -0.011753 0 2650 
3847 1 -0.009739 0.0101977 -0.012406 0.000656 0 -0.011753 0 2650 
1495 1 -0.004483 0.00974367 -0.012591 0.000116 0 -0.011753 0 2650 
1250 1 -0.007399 0.0109227 -0.012448 0.000423 0 -0.011753 0 2650 
3173 1 -0.004958 0.0104047 -0.012321 4.2e-05 0 -0.011753 0 2650 
2109 1 -0.001932 0.0105437 -0.012277 0.000423 0 -0.011753 0 2650 
2630 1 -0.001036 0.0106127 -0.012074 4.2e-05 0 -0.011753 0 2650 
4002 1 -0.000443 0.0104367 -0.01223 0.000116 0 -0.011753 0 2650 
65 1 -0.009488 0.0118177 -0.011959 0.000116 0 -0.011753 0 2650 
911 1 -0.00434661 0.0114822 -0.0123985 0.000423 -0.153272 0.0598619 0.0257807 2650 
1900 1 -0.00348498 0.0112698 -0.0125288 0.000423 -0.0355934 0.197623 0.0655201 2650 
1423 1 -0.00145 0.0120927 -0.012526 4.2e-05 0 -0.011753 0 2650 
2483 1 -0.008006 0.0129747 -0.012441 0.000116 0 -0.011753 0 2650 
1578 1 -0.007713 0.0128137 -0.011972 0.000423 0 -0.011753 0 2650 
2205 1 -0.004822 0.0132637 -0.012334 0.000656 0 -0.011753 0 2650 
1654 1 -0.000586893 0.0153135 -0.0123763 0.000656 0.177779 0.189864 0.355705 2650 
4133 1 -0.0169658 -0.0135786 -0.0111191 0.000116 -2.60671 -0.810774 -1.58946 2650 
704 1 -0.01034 -0.00290233 -0.011479 0.000423 0 -0.011753 0 2650 
3999 1 -0.005715 -0.00274633 -0.011742 0.000423 0 -0.011753 0 2650 
3679 1 -0.012092 -0.00194433 -0.011604 0.000116 0 -0.011753 0 2650 
2072 1 -0.009308 -0.00208233 -0.011721 0.000116 0 -0.011753 0 2650 
3505 1 -0.006952 -0.000986332 -0.011235 4.2e-05 0 -0.011753 0 2650 
3191 1 -0.00389203 -0.001511 -0.0114869 0.000656 -0.0505784 0.0119691 -0.00142744 2650 
1022 1 -0.002093 -0.00111633 -0.011454 0.000423 0 -0.011753 0 2650 
123 1 -0.010848 -0.000422332 -0.011246 0.000423 0 -0.011753 0 2650 
2166 1 -0.009005 -0.000576332 -0.011549 0.000116 0 -0.011753 0 2650 
2022 1 -0.004959 -0.000421332 -0.011261 0.000423 0 -0.011753 0 2650 
2827 1 -0.001988 0.000552668 -0.011163 0.000116 0 -0.011753 0 2650 
440 1 -0.00061 0.000315668 -0.011485 4.2e-05 0 -0.011753 0 2650 
3311 1 -0.0093877 0.00114865 -0.0113253 0.000423 -0.111663 -0.0427051 0.0655867 2650 
2293 1 -0.00252759 0.00225814 -0.0116584 0.000116 0.310609 0.0311192 0.0518803 2650 
1452 1 -0.00142 0.00225467 -0.011258 0.000423 0 -0.011753 0 2650 
4215 1 -0.011184 0.00242467 -0.011524 0.000423 0 -0.011753 0 2650 
2279 1 -0.011345 0.00298767 -0.01145 0.000116 0 -0.011753 0 2650 
2579 1 -0.008716 0.00243467 -0.011261 0.000423 0 -0.011753 0 2650 
3535 1 -9.9e-05 0.00272767 -0.011488 0.000423 0 -0.011753 0 2650 
3223 1 -0.010476 0.00352967 -0.011335 0.000423 0 -0.011753 0 2650 
3894 1 -0.005583 0.00348667 -0.011098 0.000116 0 -0.011753 0 2650 
1063 1 -0.009531 0.00404167 -0.011683 0.000116 0 -0.011753 0 2650 
3235 1 -0.00642151 0.00472253 -0.011263 0.000423 -0.00988696 -0.0212582 0.0528137 2650 
3383 1 -0.011681 0.00503667 -0.011229 0.000116 0 -0.011753 0 2650 
3542 1 -0.003838 0.00521267 -0.011253 0.000423 0 -0.011753 0 2650 
2294 1 -0.004894 0.00572267 -0.011565 0.000116 0 -0.011753 0 2650 
878 1 -0.003908 0.00620567 -0.011202 4.2e-05 0 -0.011753 0 2650 
708 1 -0.00252 0.00591867 -0.011391 0.000423 0 -0.011753 0 2650 
1822 1 -0.008034 0.00677567 -0.011166 0.000116 0 -0.011753 0 2650 
234 1 -0.004437 0.00674867 -0.011677 0.000423 0 -0.011753 0 2650 
1758 1 -0.00201 0.00703667 -0.01144 4.2e-05 0 -0.011753 0 2650 
1215 1 -0.009596 0.00732967 -0.01151 0.000656 0 -0.011753 0 2650 
4027 1 -0.003218 0.00816767 -0.011075 0.000116 0 -0.011753 0 2650 
2409 1 -0.002586 0.00810667 -0.011527 4.2e-05 0 -0.011753 0 2650 
1381 1 -0.00214672 0.00807208 -0.0111348 0.000116 -0.159556 0.187878 -0.1035 2650 
222 1 -0.00126231 0.00815564 -0.0111445 0.000656 0.00133262 -0.0109893 -0.000355127 2650 
2798 1 -0.008755 0.00920667 -0.01131 0.000423 0 -0.011753 0 2650 
2913 1 -0.002971 0.00881567 -0.011434 0.000116 0 -0.011753 0 2650 
823 1 -0.000639 0.00934167 -0.011216 0.000423 0 -0.011753 0 2650 
1617 1 -0.00424 0.0100957 -0.011492 0.000116 0 -0.011753 0 2650 
2270 1 -0.00208544 0.00962326 -0.011607 0.000116 0.291765 0.176844 -0.393424 2650 
2596 1 -0.001219 0.00965067 -0.011432 0.000116 0 -0.011753 0 2650 
1935 1 -0.00323843 0.0103277 -0.0110646 0.000116 -0.0650223 -0.119388 0.0262199 2650 
3684 1 -0.00483 0.0113777 -0.011273 0.000116 0 -0.011753 0 2650 
1663 1 -0.009704 0.0124907 -0.011499 0.000423 0 -0.011753 0 2650 
3145 1 -0.006381 0.0125587 -0.011273 0.000116 0 -0.011753 0 2650 
1143 1 -0.00197355 0.0127916 -0.0116627 0.000423 0.00744219 0.00969658 -0.00437689 2650 
2111 1 -0.009632 0.0134777 -0.011343 0.000423 0 -0.011753 0 2650 
976 1 -0.005828 0.0139357 -0.011785 0.000116 0 -0.011753 0 2650 
3588 1 -0.00707512 0.0183678 -0.0111242 0.000116 -0.207803 0.370209 -1.04142 2650 
2820 1 -0.007052 -0.00272633 -0.010962 0.000116 0 -0.011753 0 2650 
3265 1 -0.006001 -0.00273833 -0.010684 0.000116 0 -0.011753 0 2650 
4373 1 -0.004239 -0.00172033 -0.010869 4.2e-05 0 -0.011753 0 2650 
3426 1 -0.000992 -0.00198033 -0.010574 0.000423 0 -0.011753 0 2650 
3603 1 -0.004768 -0.00138233 -0.010424 0.000116 0 -0.011753 0 2650 
15 1 -0.001892 -0.00132933 -0.010407 0.000423 0 -0.011753 0 2650 
2848 1 -0.010456 -0.000685332 -0.010698 4.2e-05 0 -0.011753 0 2650 
3640 1 -0.009654 -0.000524332 -0.010891 0.000423 0 -0.011753 0 2650 
3093 1 -0.002889 -9.03316e-05 -0.010782 0.000423 0 -0.011753 0 2650 
2130 1 -0.000316 -0.000265332 -0.010491 0.000423 0 -0.011753 0 2650 
3960 1 -0.008634 0.000222668 -0.010875 0.000423 0 -0.011753 0 2650 
3673 1 -0.00272 0.000764668 -0.010833 0.000423 0 -0.011753 0 2650 
1193 1 -4.3e-05 0.000300668 -0.010628 0.000116 0 -0.011753 0 2650 
3866 1 -0.011939 0.00127667 -0.01034 0.000423 0 -0.011753 0 2650 
281 1 -0.00973 0.000992668 -0.010656 0.000116 0 -0.011753 0 2650 
388 1 -0.008271 0.000818668 -0.010879 0.000116 0 -0.011753 0 2650 
2542 1 -0.005905 0.00110367 -0.010347 0.000423 0 -0.011753 0 2650 
3284 1 -0.001323 0.000789668 -0.010635 4.2e-05 0 -0.011753 0 2650 
3530 1 -0.000573 0.00125967 -0.010526 0.000423 0 -0.011753 0 2650 
1233 1 -0.012882 0.00241867 -0.010287 0.000423 0 -0.011753 0 2650 
4104 1 -0.009745 0.00317767 -0.010868 0.000423 0 -0.011753 0 2650 
497 1 -0.00574 0.00341267 -0.010398 0.000116 0 -0.011753 0 2650 
124 1 -0.005032 0.00331767 -0.01051 0.000423 0 -0.011753 0 2650 
1192 1 -0.004051 0.00363667 -0.010435 0.000116 0 -0.011753 0 2650 
2912 1 -0.006578 0.00557967 -0.010859 0.000116 0 -0.011753 0 2650 
3787 1 -0.006362 0.00601567 -0.010668 0.000116 0 -0.011753 0 2650 
760 1 -0.006943 0.00635267 -0.010573 4.2e-05 0 -0.011753 0 2650 
861 1 -0.006339 0.00652667 -0.010358 0.000116 0 -0.011753 0 2650 
2326 1 -0.011808 0.00730567 -0.010725 0.000423 0 -0.011753 0 2650 
2948 1 -0.002008 0.00771867 -0.010384 0.000116 0 -0.011753 0 2650 
2500 1 -0.010648 0.00790167 -0.010771 0.000116 0 -0.011753 0 2650 
4166 1 -0.004213 0.00800867 -0.01052 0.000656 0 -0.011753 0 2650 
3727 1 -0.004412 0.00865667 -0.010287 4.2e-05 0 -0.011753 0 2650 
3456 1 -0.00341692 0.00878689 -0.0106667 0.000423 -0.00364508 -0.0138266 -0.0038965 2650 
1010 1 -0.011662 0.00991467 -0.010903 0.000423 0 -0.011753 0 2650 
3132 1 -0.007716 0.00997767 -0.01033 0.000116 0 -0.011753 0 2650 
2097 1 -0.00889 0.0104707 -0.010395 0.000656 0 -0.011753 0 2650 
89 1 -0.003936 0.0105227 -0.010466 0.000116 0 -0.011753 0 2650 
2759 1 -0.011495 0.0114707 -0.010915 0.000656 0 -0.011753 0 2650 
1376 1 -0.009927 0.0112167 -0.010971 0.000116 0 -0.011753 0 2650 
2261 1 -0.007381 0.0115677 -0.010514 0.000116 0 -0.011753 0 2650 
233 1 -0.004974 0.0118037 -0.010958 0.000423 0 -0.011753 0 2650 
2260 1 -0.008542 0.0121887 -0.010892 0.000116 0 -0.011753 0 2650 
1826 1 -0.00617798 0.011855 -0.0108283 0.000116 0.303091 0.407482 -0.200615 2650 
1802 1 -0.004638 0.0125637 -0.010282 0.000423 0 -0.011753 0 2650 
4167 1 -0.003538 0.0119107 -0.010916 0.000656 0 -0.011753 0 2650 
499 1 -0.011613 0.0129387 -0.010379 0.000116 0 -0.011753 0 2650 
1754 1 -0.008854 0.0130447 -0.010611 4.2e-05 0 -0.011753 0 2650 
1913 1 -0.008189 0.0131787 -0.010954 0.000423 0 -0.011753 0 2650 
3899 1 -0.004387 0.0130627 -0.010427 0.000116 0 -0.011753 0 2650 
3595 1 -0.007357 0.0137477 -0.010628 0.000116 0 -0.011753 0 2650 
3767 1 -0.006013 0.0136637 -0.010843 0.000423 0 -0.011753 0 2650 
963 1 -0.000669 0.0137267 -0.010387 0.000116 0 -0.011753 0 2650 
1068 1 -0.01118 -0.00292533 -0.009643 0.000116 0 -0.011753 0 2650 
4285 1 -0.00947193 -0.00279248 -0.00987097 0.000423 -0.0326668 -0.0127335 -0.0140672 2650 
3409 1 -0.00843782 -0.00285902 -0.00952416 0.000656 -0.0237104 -0.0329197 -0.0228617 2650 
3652 1 -0.0110357 -0.00192846 -0.00955782 0.000423 -0.0103103 -0.0416486 0.00256542 2650 
3933 1 -0.006596 -0.00201933 -0.009623 0.000116 0 -0.011753 0 2650 
939 1 -0.001916 -0.000963332 -0.009682 0.000116 0 -0.011753 0 2650 
1630 1 -0.00227 -0.000898332 -0.00958 0.000116 0 -0.011753 0 2650 
3756 1 -0.00851176 -1.20581e-06 -0.00987067 0.000423 -0.135759 0.0517513 -0.0013875 2650 
417 1 -0.004944 -0.000653332 -0.009884 0.000116 0 -0.011753 0 2650 
3460 1 -0.013084 0.000206668 -0.009951 0.000116 0 -0.011753 0 2650 
2778 1 -0.01202 0.000471668 -0.00976 0.000423 0 -0.011753 0 2650 
1750 1 -0.011512 0.00111367 -0.01018 4.2e-05 0 -0.011753 0 2650 
1160 1 -0.010117 0.00132967 -0.010115 0.000116 0 -0.011753 0 2650 
3264 1 -0.003542 0.00130067 -0.010108 0.000116 0 -0.011753 0 2650 
1562 1 -0.002141 0.000871668 -0.010154 0.000423 0 -0.011753 0 2650 
2164 1 -0.012835 0.00173667 -0.009898 0.000116 0 -0.011753 0 2650 
2975 1 -0.011752 0.00234967 -0.009985 0.000656 0 -0.011753 0 2650 
800 1 -0.00114 0.00159067 -0.009738 0.000423 0 -0.011753 0 2650 
3135 1 -0.00038 0.00226667 -0.010152 0.000116 0 -0.011753 0 2650 
3832 1 -0.01255 0.00271867 -0.009616 4.2e-05 0 -0.011753 0 2650 
4374 1 -0.008921 0.00248467 -0.009568 4.2e-05 0 -0.011753 0 2650 
3250 1 -0.008233 0.00245767 -0.010036 0.000116 0 -0.011753 0 2650 
1977 1 -0.006037 0.00372767 -0.009842 4.2e-05 0 -0.011753 0 2650 
3324 1 -0.0113896 0.00398793 -0.00987218 0.000423 -0.0148526 -0.0100043 0.0122397 2650 
364 1 -0.008943 0.00468767 -0.009746 0.000423 0 -0.011753 0 2650 
3031 1 -0.011934 0.00522767 -0.00971 0.000116 0 -0.011753 0 2650 
2474 1 -0.001928 0.00507167 -0.009724 0.000423 0 -0.011753 0 2650 
3790 1 -0.012918 0.00565867 -0.010098 0.000116 0 -0.011753 0 2650 
3116 1 -0.01058 0.00572867 -0.009568 0.000423 0 -0.011753 0 2650 
4013 1 -0.00503916 0.00597319 -0.00966506 0.000116 0.120721 0.294041 -0.0401455 2650 
958 1 -0.001223 0.00622667 -0.009713 0.000116 0 -0.011753 0 2650 
1717 1 -0.00871394 0.00699405 -0.0100251 0.000116 0.397807 0.269137 0.223069 2650 
4256 1 -0.007946 0.00642167 -0.010197 0.000116 0 -0.011753 0 2650 
3364 1 -0.006241 0.00652067 -0.010015 0.000116 0 -0.011753 0 2650 
1310 1 -0.011355 0.00778067 -0.010263 4.2e-05 0 -0.011753 0 2650 
3071 1 -0.009089 0.00858567 -0.009836 4.2e-05 0 -0.011753 0 2650 
3967 1 -0.00795101 0.0100783 -0.00960044 0.000423 -0.00817862 -0.00706642 0.00830439 2650 
2581 1 -0.004751 0.00958267 -0.01 0.000423 0 -0.011753 0 2650 
2344 1 -0.001557 0.0104837 -0.009839 0.000423 0 -0.011753 0 2650 
3361 1 -5.4e-05 0.0107327 -0.010103 0.000116 0 -0.011753 0 2650 
301 1 -0.005514 0.0116217 -0.009906 0.000116 0 -0.011753 0 2650 
660 1 -0.002925 0.0120627 -0.009723 4.2e-05 0 -0.011753 0 2650 
1827 1 -0.000405 0.0125677 -0.009578 0.000116 0 -0.011753 0 2650 
1087 1 -0.005985 0.0128747 -0.009545 0.000116 0 -0.011753 0 2650 
2781 1 -0.00312575 0.013067 -0.0100137 0.000423 -0.0117237 -0.0176724 0.00043508 2650 
3155 1 -0.0126891 0.0549974 -0.0100727 0.000116 1.22253 2.14792 -1.20231 2650 
152 1 -0.0116655 -0.0101295 -0.00937184 0.000423 -1.80204 -0.441423 -1.70349 2650 
355 1 -0.0187713 -0.00848866 -0.0088223 0.000423 -2.84874 -0.467073 -1.23767 2650 
1818 1 -0.00529095 -0.0033791 -0.00897437 0.000116 -0.417474 -0.0332332 -0.708109 2650 
1239 1 -0.00339428 -0.00318387 -0.00900879 0.000423 -0.0112942 -0.0224869 -0.0158758 2650 
2846 1 -0.006122 -0.00310533 -0.009068 4.2e-05 0 -0.011753 0 2650 
2224 1 -0.00440032 -0.00284127 -0.00897758 0.000423 -0.100506 -0.0985008 -0.0561641 2650 
1787 1 -0.012291 -0.00173333 -0.008935 0.000423 0 -0.011753 0 2650 
4306 1 -0.00992756 -0.00170258 -0.00898356 0.000423 -0.126995 0.0327832 -0.0544925 2650 
661 1 -0.00817864 -0.00158342 -0.00916826 0.000656 -0.0248865 -0.0346178 0.0286859 2650 
756 1 -0.007322 -0.00175433 -0.009147 0.000116 0 -0.011753 0 2650 
3393 1 -0.006109 -0.000494332 -0.008736 4.2e-05 0 -0.011753 0 2650 
1690 1 -0.004681 -0.000617332 -0.00917 0.000423 0 -0.011753 0 2650 
159 1 -0.005821 0.000117668 -0.009096 0.000423 0 -0.011753 0 2650 
2436 1 -0.00744388 0.00125626 -0.00941028 0.000423 -0.243386 -0.136927 0.0258156 2650 
193 1 -0.010056 0.00187167 -0.009264 0.000116 0 -0.011753 0 2650 
3935 1 -0.00768657 0.00227148 -0.00876101 0.000116 -0.204491 0.0198831 0.095876 2650 
2299 1 -0.003792 0.00232467 -0.009457 4.2e-05 0 -0.011753 0 2650 
1184 1 -0.011934 0.00291267 -0.00927 0.000116 0 -0.011753 0 2650 
3450 1 -0.011877 0.00266067 -0.008756 0.000423 0 -0.011753 0 2650 
608 1 -0.01048 0.00243067 -0.008875 0.000116 0 -0.011753 0 2650 
1121 1 -0.002698 0.00254267 -0.00928 0.000423 0 -0.011753 0 2650 
2541 1 -0.0065706 0.0041731 -0.00924325 0.000656 -0.00129575 -0.0112361 0.000264226 2650 
3558 1 -0.007141 0.00540367 -0.00937 0.000423 0 -0.011753 0 2650 
1171 1 -0.008755 0.00606067 -0.00943 0.000116 0 -0.011753 0 2650 
1567 1 -0.008425 0.00701967 -0.008875 0.000423 0 -0.011753 0 2650 
1584 1 -0.005051 0.00695467 -0.00882 0.000423 0 -0.011753 0 2650 
3984 1 -0.012135 0.00787167 -0.009019 0.000423 0 -0.011753 0 2650 
373 1 -0.01088 0.00728267 -0.009322 0.000423 0 -0.011753 0 2650 
842 1 -0.010207 0.00758567 -0.009055 0.000116 0 -0.011753 0 2650 
2633 1 -0.005185 0.00753567 -0.009252 4.2e-05 0 -0.011753 0 2650 
949 1 -0.004033 0.00808667 -0.009175 0.000116 0 -0.011753 0 2650 
4077 1 -0.012422 0.00910767 -0.00892 0.000423 0 -0.011753 0 2650 
2649 1 -0.00472 0.00899467 -0.008709 0.000656 0 -0.011753 0 2650 
368 1 -0.013572 0.00958667 -0.008947 0.000423 0 -0.011753 0 2650 
595 1 -0.009604 0.00977567 -0.009278 0.000423 0 -0.011753 0 2650 
4368 1 -0.004474 0.0101677 -0.008808 0.000116 0 -0.011753 0 2650 
3042 1 -0.012085 0.0108627 -0.009039 0.000116 0 -0.011753 0 2650 
2678 1 -0.01021 0.0108617 -0.009104 0.000423 0 -0.011753 0 2650 
3784 1 -0.00722442 0.0114469 -0.00941571 0.000116 -0.153494 0.0819907 -0.0140492 2650 
2094 1 -0.00644949 0.0117581 -0.00907224 0.000656 0.00162843 -0.0101561 0.00114598 2650 
1021 1 -0.012788 0.0124217 -0.008833 0.000423 0 -0.011753 0 2650 
796 1 -0.00925 0.0123877 -0.009199 0.000423 0 -0.011753 0 2650 
4179 1 -0.00480236 0.0119515 -0.00909091 0.000423 -0.00365698 -0.00657615 -0.0104014 2650 
1859 1 -0.011231 0.0132347 -0.009139 4.2e-05 0 -0.011753 0 2650 
232 1 -0.010455 0.0132267 -0.008807 0.000656 0 -0.011753 0 2650 
449 1 -0.002169 0.0126447 -0.008811 0.000656 0 -0.011753 0 2650 
473 1 -0.006405 0.0135757 -0.009211 0.000423 0 -0.011753 0 2650 
1521 1 -0.005494 0.0135687 -0.009109 0.000116 0 -0.011753 0 2650 
1655 1 -0.0314021 -0.0127418 -0.00842202 0.000656 -4.92692 -0.793034 -1.11815 2650 
947 1 -0.0136865 -0.00331417 -0.00811215 0.000116 -0.323119 -0.017642 -0.191517 2650 
3875 1 -0.00833754 -0.00335289 -0.00799509 0.000423 -0.233015 -0.121448 0.02891 2650 
4372 1 -0.00299455 -0.00354157 -0.00826572 4.2e-05 -0.381021 -0.0555806 -1.05171 2650 
1774 1 -0.001246 -0.00276133 -0.00814 0.000423 0 -0.011753 0 2650 