ITEM: TIMESTEP
11564658
ITEM: NUMBER OF ATOMS
4274
ITEM: BOX BOUNDS ff ff ff
-0.15 0.15
-0.15 0.06
-0.15 0.15
ITEM: ATOMS id type x y z radius vx vy vz density 
3887 1 -0.00164127 -0.0555997 -0.0685584 0.000423 1.03472 -0.602821 -0.024771 2650 
2690 1 -0.000440092 -0.0548278 -0.0685766 0.000423 -0.978626 -0.0549166 0.00628036 2650 
4036 1 -0.0115298 -0.0624209 -0.0652372 0.000116 3.81925 0.187389 -1.2825 2650 
4307 1 -0.0210857 -0.0494438 -0.0652563 0.000423 7.37216 1.70057 -2.3821 2650 
2959 1 -0.0279781 -0.0470912 -0.0630273 4.2e-05 2.07142 -2.46739 -0.919513 2650 
2051 1 -0.0316986 -0.059923 -0.0611574 0.000116 6.24636 -0.0473823 -3.23756 2650 
2837 1 -0.0254229 -0.0620732 -0.0593137 0.000116 6.75921 0.698246 -1.11839 2650 
2310 1 -0.0360076 -0.0596011 -0.0588104 4.2e-05 8.78647 1.11832 -5.37965 2650 
3464 1 -0.0363532 -0.0623705 -0.0585105 0.000116 9.35101 0.087259 -5.80988 2650 
4305 1 -0.03731 -0.0476894 -0.0575405 0.000423 -0.120649 -0.0301388 0.0782302 2650 
3393 1 -0.0415008 -0.0589566 -0.0550717 4.2e-05 -0.714238 -2.0502 0.538234 2650 
2042 1 -0.0446459 -0.0461189 -0.0524573 0.000116 1.30925 0.381066 -1.11429 2650 
3966 1 -0.045285 -0.0565762 -0.0514997 0.000423 -0.507564 0.163498 0.446313 2650 
213 1 -0.0134946 -0.0591215 -0.0506507 4.2e-05 5.3775 -4.41305 -0.895234 2650 
1239 1 -0.0478579 -0.0451659 -0.0491179 0.000423 -0.177512 -0.416866 0.172958 2650 
1768 1 -0.0509754 -0.0542018 -0.045527 0.000656 0.158601 0.416264 -0.177582 2650 
1012 1 -0.0526349 -0.0526165 -0.0439604 0.000423 -0.190443 -0.369556 0.228022 2650 
420 1 -0.0543489 -0.0511669 -0.0423228 0.000116 2.52037 0.819769 -3.23654 2650 
4331 1 -0.0561359 -0.0535664 -0.0399222 0.000116 2.8183 -0.339615 -3.96291 2650 
3583 1 -0.0567721 -0.0539546 -0.0390122 0.000116 2.6012 -0.409037 -3.78537 2650 
2143 1 -0.0578875 -0.0454445 -0.0367693 0.000423 -0.457198 -0.271574 0.719787 2650 
2476 1 -0.0593706 -0.053562 -0.0349306 0.000116 0.356842 -0.691658 -0.606515 2650 
4023 1 -0.0611492 -0.0621471 -0.0317144 0.000116 4.43894 0.142115 -8.55548 2650 
3013 1 -0.0630731 -0.0553816 -0.0269209 0.000423 -0.194494 -0.0479211 0.455679 2650 
3549 1 -0.0630906 -0.0498422 -0.0268797 0.000423 0.274786 0.0427729 -0.644963 2650 
3673 1 -0.0631481 -0.0595718 -0.0267444 0.000423 -0.737126 -1.36273 1.74048 2650 
1377 1 -0.0636535 -0.0534408 -0.0263298 0.000116 0.660487 -0.22079 -1.59676 2650 
1107 1 -0.0633509 -0.0541666 -0.0256488 0.000656 0.238543 0.60975 -0.589187 2650 
947 1 -0.0653458 -0.051635 -0.0217933 0.000116 0.551716 0.231521 -1.65429 2650 
3613 1 -0.0658977 -0.0603613 -0.020315 4.2e-05 0.183086 -1.04242 -0.593895 2650 
312 1 -0.0659596 -0.0609891 -0.0193106 0.000116 5.14526 0.61207 -11.7793 2650 
169 1 -0.066188 -0.0538614 -0.0190835 0.000116 1.67844 -0.202776 -5.82139 2650 
2100 1 -0.0667308 -0.0506571 -0.0147714 0.000656 -0.291199 -0.28812 1.31551 2650 
2672 1 -0.0671565 -0.0583304 -0.0138921 0.000423 1.37351 0.505905 -6.63974 2650 
908 1 -0.0672436 -0.0508123 -0.0134628 0.000423 -0.26877 -0.291295 1.34245 2650 
3058 1 -0.0629 -0.0613751 -0.0120154 0.000116 4.55236 0.808807 -9.4565 2650 
3812 1 -0.0680545 -0.0505818 -0.0106588 0.000116 -0.189889 -0.283432 1.2124 2650 
917 1 -0.068344 -0.0480762 -0.00566107 0.000423 0.208731 -0.376095 -2.51993 2650 
3974 1 -0.0684483 -0.0493971 -0.0042167 0.000423 0.141851 -1.74002 -2.30262 2650 
2829 1 -0.0687184 -0.047778 -0.00477592 0.000116 0.154123 0.104102 -2.2176 2650 
3261 1 -0.0688813 -0.0458698 0.000627903 0.000116 -0.0429478 -0.814389 -4.7114 2650 
2480 1 -0.0685696 -0.0600946 0.00657583 0.000116 -0.634274 0.684764 -6.6139 2650 
1208 1 -0.0684682 -0.0577381 0.00820463 4.2e-05 -0.363879 -0.227962 -3.0366 2650 
1841 1 -0.068296 -0.0622264 0.0089879 0.000116 -0.470941 1.29696 -3.18841 2650 
800 1 -0.0677166 -0.0609676 0.0108365 0.000423 -0.703267 -0.0584796 -4.39465 2650 
2460 1 -0.0652977 -0.0619054 0.0209148 0.000423 -0.527871 0.235753 -1.35161 2650 
3640 1 -0.0648197 -0.0490871 0.0223911 0.000423 -0.652167 1.43259 -1.88795 2650 
577 1 -0.0634059 -0.0556126 0.0261273 0.000423 -0.201617 0.726891 -0.489286 2650 
1227 1 -0.0629862 -0.0563363 0.0271236 0.000423 -0.109706 -0.298293 -0.254759 2650 
19 1 -0.0622275 -0.0620938 0.0288217 0.000423 0.5647 -0.832325 1.21922 2650 
2291 1 -0.0623509 -0.0494271 0.0292811 0.000116 -1.37851 -1.65389 -2.93538 2650 
2234 1 -0.0601317 -0.0569922 0.0329715 0.000423 0.286211 -0.72679 0.521976 2650 
1869 1 -0.0601971 -0.0623534 0.033599 4.2e-05 -5.09117 0.593193 -9.35294 2650 
1558 1 -0.0599336 -0.0538979 0.0333304 0.000423 1.47048 -0.970188 2.64417 2650 
159 1 -0.0586212 -0.0539048 0.035588 0.000423 0.668227 -0.309856 1.10071 2650 
1955 1 -0.0579177 -0.0541838 0.0372902 0.000116 -0.921403 0.124544 -1.43109 2650 
4068 1 -0.0548481 -0.0527676 0.0411659 0.000423 0.0308853 -0.397119 0.0411506 2650 
1095 1 -0.05214 -0.0620339 0.045064 4.2e-05 2.05486 2.56725 2.54915 2650 
1079 1 -0.0479597 -0.0587997 0.0494458 0.000116 -2.34153 0.37852 -2.27115 2650 
2098 1 -0.0437814 -0.0455756 0.0524823 0.000656 0.499869 -0.219085 0.416996 2650 
2269 1 -0.041243 -0.0610955 0.0551307 0.000116 -4.05821 0.230231 -3.34244 2650 
4098 1 -0.0382433 -0.052859 0.0569245 0.000423 0.710851 -0.0577867 0.477567 2650 
1601 1 -0.0158741 -0.058544 0.0597175 0.000116 -6.13277 0.59265 4.35532 2650 
633 1 -0.0310303 -0.0622547 0.061445 0.000116 -6.50761 -0.0480077 -3.19231 2650 
2937 1 -0.0314222 -0.0578883 0.0612998 0.000116 -2.86745 0.236711 -1.46985 2650 
715 1 -0.0295496 -0.0483064 0.0618851 0.000423 1.48109 -0.589483 0.707207 2650 
4026 1 -0.0277093 -0.05849 0.0630652 0.000116 -2.82718 -0.100192 -1.2422 2650 
2130 1 -0.0265326 -0.0555663 0.0632374 0.000423 1.71802 -0.733113 0.720833 2650 
397 1 -0.000865964 -0.0620044 0.064281 0.000116 -10.0189 0.089506 -3.09539 2650 
753 1 -0.0243489 -0.0490916 0.0644372 0.000116 -0.840737 -0.365127 -0.317689 2650 
3891 1 -0.0204046 -0.055544 0.0654722 0.000423 -3.12887 0.0842361 -0.975119 2650 
3090 1 -0.0203594 -0.0515308 0.0654862 0.000423 0.800732 0.0996614 0.248944 2650 
1752 1 -0.0205963 -0.0615492 0.0658103 4.2e-05 -0.281092 -0.0459909 -0.0879718 2650 
2404 1 -0.0212066 -0.0609313 0.0655386 0.000116 -3.39129 -0.310051 -1.09734 2650 
1723 1 -0.0162008 -0.0613289 0.0669519 0.000116 -2.03748 -0.0635232 -0.493023 2650 
2053 1 -0.0164403 -0.060075 0.0668935 0.000116 -7.6553 -0.102059 -1.88142 2650 
392 1 -0.0179691 -0.0534214 0.0664991 0.000116 -5.26191 -0.929467 -1.42185 2650 
2574 1 -0.0139575 -0.0477815 0.0671427 0.000423 1.39193 -0.304437 0.289353 2650 
3786 1 -0.0113022 -0.0610416 0.0679506 0.000116 -2.58897 -0.0416387 -0.430622 2650 
2337 1 -0.00115661 -0.0578982 0.0685685 0.000423 -6.06993 0.634697 -0.102388 2650 
455 1 -0.0039158 -0.0514302 0.0684662 0.000423 -1.72533 -0.105239 -0.0986773 2650 
3038 1 -0.0114887 -0.0512462 0.0679193 0.000116 -6.08673 1.01433 -1.02958 2650 
2064 1 -0.00151037 -0.0549012 0.0688676 0.000116 -7.35192 1.01385 -0.161239 2650 
2527 1 -0.00287839 -0.0520047 0.0688979 4.2e-05 1.5006 0.61707 0.0626916 2650 
2714 1 -0.00507461 -0.0124842 -0.0686969 0.000116 -0.240854 0.0453295 0.0177917 2650 
4011 1 -0.000294676 -0.00826553 -0.0688835 0.000116 -1.56291 -0.10562 0.00668595 2650 
3388 1 -0.00208894 -0.00141089 -0.0688524 0.000116 -2.19408 0.307694 0.0665669 2650 
4044 1 -0.000663112 -0.00154653 -0.0688809 0.000116 -1.79878 -0.195376 0.0173167 2650 
482 1 -0.0085885 -0.0412273 -0.0680393 0.000423 -1.45735 -0.520322 0.204801 2650 
2418 1 -0.00415968 -0.0364945 -0.0684849 4.2e-05 3.89808 0.503245 -2.46977 2650 
2680 1 -0.00663447 -0.0327529 -0.0682564 0.000423 -1.93917 -0.106834 0.188486 2650 
1493 1 -0.00885281 -0.0218155 -0.0683129 0.000116 -0.00534338 -0.388922 0.00069246 2650 
3095 1 -0.000342538 -0.0180413 -0.0685772 0.000423 -1.21241 0.150347 0.00605591 2650 
3269 1 -0.0106229 -0.0116289 -0.0680601 0.000116 -1.98991 -0.696886 0.310587 2650 
427 1 -0.0115309 -0.0110425 -0.0679122 0.000116 -1.98656 0.179968 0.337301 2650 
1372 1 -0.00843022 -0.0106761 -0.0680579 0.000423 -1.93924 -0.289503 0.24021 2650 
3534 1 -0.00686417 -0.0106979 -0.0682337 0.000423 -1.85259 -0.223312 0.186367 2650 
711 1 -0.00709125 -0.008153 -0.0682104 0.000423 -1.85107 -0.231795 0.192439 2650 
1075 1 -0.00824191 -0.00660712 -0.0683893 0.000116 -2.23763 0.108532 0.269668 2650 
3204 1 -0.00725948 -0.0061842 -0.0681928 0.000423 -2.40507 -0.0481081 0.256033 2650 
2183 1 -0.00899885 -0.003778 -0.0682938 0.000116 -1.8705 0.0907423 0.246469 2650 
15 1 -0.00200204 -0.00374311 -0.0685488 0.000423 -2.06817 -0.166168 0.0604029 2650 
1669 1 -0.00102929 -0.00311128 -0.0685703 0.000423 -2.14119 -0.0757921 0.0321407 2650 
1598 1 -0.00971229 -0.00181342 -0.068196 0.000116 -2.01882 -0.0532477 0.287515 2650 
2031 1 -0.00758518 -0.00218046 -0.0681573 0.000423 -1.89268 -0.102244 0.210635 2650 
2000 1 -0.00145259 -0.00197034 -0.0685627 0.000423 -2.10343 0.0149765 0.044564 2650 
3926 1 -0.00707493 -0.000801506 -0.0685198 0.000116 -1.84761 0.0620956 0.190772 2650 
1675 1 -0.00548203 -0.00124675 -0.0683586 0.000423 -1.70408 -0.0686289 0.136659 2650 
2132 1 -0.000657965 -0.000426036 -0.0685749 0.000423 -2.0317 -0.0023793 0.0194938 2650 
2001 1 -0.0138479 -0.0378825 -0.0671653 0.000423 -1.31836 -0.386744 0.271814 2650 
1045 1 -0.0102885 -0.0136872 -0.0678019 0.000423 -1.61197 0.256456 0.244607 2650 
3945 1 -0.0144405 -0.0116626 -0.0674291 4.2e-05 1.67787 2.21372 -0.359329 2650 
2732 1 -0.0121517 -0.0118268 -0.0678038 0.000116 -2.00798 0.0981009 0.359868 2650 
2664 1 -0.0113564 -0.00760488 -0.0676312 0.000423 -1.99892 -0.152729 0.335653 2650 
3656 1 -0.0118456 -0.00351929 -0.0675473 0.000423 -1.82523 -0.0281723 0.317559 2650 
2211 1 -0.0108004 -0.00377943 -0.0674874 0.000656 -1.89441 -0.109637 0.303626 2650 
1781 1 -0.0135819 -0.00070507 -0.0672196 0.000423 -1.41388 -0.0375803 0.285677 2650 
3875 1 -0.0114372 -0.000580746 -0.0676176 0.000423 -2.01095 -0.0175328 0.340144 2650 
55 1 -0.017463 -0.0376414 -0.0663174 0.000423 -1.47062 -0.381102 0.387251 2650 
1031 1 -0.0150461 -0.0376192 -0.0669071 0.000423 -1.36815 -0.42937 0.30767 2650 
3525 1 -0.017123 -0.0196047 -0.066406 0.000423 -1.7353 -0.363179 0.447592 2650 
1408 1 -0.0180192 -0.0177385 -0.0664856 0.000116 -1.96342 0.728725 0.532132 2650 
358 1 -0.017104 -0.0171898 -0.0664108 0.000423 -0.480898 0.355884 0.123853 2650 
3959 1 -0.0167006 -0.0161565 -0.0665134 0.000423 -0.857785 0.867528 0.215376 2650 
2248 1 -0.0167031 -0.0141447 -0.0665128 0.000423 0.809699 0.685691 -0.203337 2650 
3734 1 -0.013511 -0.00967209 -0.0669974 0.000656 -2.02002 -0.0181707 0.407368 2650 
1550 1 -0.0163876 -0.00918461 -0.0663524 0.000656 -0.512177 0.49673 0.126496 2650 
1730 1 -0.0180871 -0.00706388 -0.0664671 0.000116 -2.82009 -0.767468 0.767404 2650 
2578 1 -0.0162 -0.00563988 -0.0666372 0.000423 -1.55261 -0.150534 0.377451 2650 
4320 1 -0.0180014 -0.0210005 -0.0661733 0.000423 -1.89963 -1.23328 0.516763 2650 
437 1 -0.0211302 -0.0203712 -0.0656432 4.2e-05 -1.48716 -0.362213 0.386221 2650 
3815 1 -0.0164782 -0.0201442 -0.0659652 0.000116 -1.22251 -0.18133 -0.446755 2650 
2327 1 -0.017769 -0.0190498 -0.066236 0.000423 -1.58444 -0.0999336 0.42491 2650 
1364 1 -0.0187125 -0.01683 -0.0659757 0.000423 -1.80169 -0.0692409 0.511007 2650 
1503 1 -0.0191544 -0.0165667 -0.0661675 0.000116 -1.41041 -0.42966 0.408289 2650 
3233 1 -0.0198804 -0.0087033 -0.0656333 0.000423 -3.06969 -0.259505 0.92893 2650 
3920 1 -0.0202202 -0.00789204 -0.0658496 0.000116 -1.70171 -0.552664 0.522537 2650 
670 1 -0.0191996 -0.00353997 -0.065594 0.000656 -1.44455 0.129955 0.422827 2650 
3227 1 -0.0180761 -0.000769281 -0.0661529 0.000423 -1.56992 -0.0135811 0.428976 2650 
2123 1 -0.0210266 -0.0434215 -0.0652751 0.000423 3.61415 0.626543 -1.1642 2650 
4250 1 -0.0220763 -0.0173399 -0.0652507 0.000116 -1.60082 -0.449869 0.541606 2650 
2086 1 -0.0237057 -0.0162357 -0.0647553 4.2e-05 -2.8996 0.0184476 1.06149 2650 
856 1 -0.0228805 -0.0150874 -0.0649731 0.000116 0.970445 -1.71049 -0.341746 2650 
3040 1 -0.0228591 -0.0135157 -0.0649806 0.000116 -1.57708 0.0706528 0.554791 2650 
2317 1 -0.020893 -0.0126674 -0.0650744 0.000656 -1.38752 0.155838 0.44548 2650 
4016 1 -0.0217418 -0.0105534 -0.065363 0.000116 -1.77583 -0.223582 0.590697 2650 
2169 1 -0.0207317 -0.00736189 -0.0648548 0.000116 -2.55735 -3.03203 0.518948 2650 
4110 1 -0.0232371 -0.0417041 -0.0644043 0.000423 2.50037 0.00839483 -0.23777 2650 
1433 1 -0.0234737 -0.0114231 -0.0641887 0.000656 -1.70844 -0.204573 0.624774 2650 
3350 1 -0.023691 -0.00963217 -0.064682 0.000116 -1.45603 -0.429161 0.533299 2650 
902 1 -0.0258749 -0.0447249 -0.0635094 0.000423 1.2868 -0.50609 -0.524266 2650 
394 1 -0.0257367 -0.0167375 -0.0636342 0.000116 3.55981 0.904004 -1.88418 2650 
3527 1 -0.0248851 -0.00727972 -0.0639037 0.000423 -1.48453 -0.0581621 0.5781 2650 
2367 1 -0.0264798 -0.00655331 -0.0635912 0.000116 -0.491351 -0.0523911 0.204602 2650 
2873 1 -0.0254393 -0.00637951 -0.0636851 0.000423 -1.4729 0.0305593 0.588357 2650 
2634 1 -0.0259105 -0.00242472 -0.063905 4.2e-05 -1.41097 0.215898 0.572083 2650 
355 1 -0.0255478 -0.00140118 -0.0636417 0.000423 -1.42906 0.198101 0.573671 2650 
827 1 -0.0286872 -0.0368239 -0.0626264 0.000116 -0.296839 -0.803839 0.135973 2650 
2349 1 -0.0283272 -0.0183877 -0.0624541 0.000423 -1.12991 -0.343863 0.512491 2650 
1172 1 -0.0292281 -0.0133607 -0.0623758 0.000116 -1.67259 -0.629397 0.783744 2650 
4052 1 -0.0283579 -0.00817886 -0.0628573 4.2e-05 -1.26739 -1.16542 0.571778 2650 
1183 1 -0.0292089 -0.00706729 -0.0623848 0.000116 -1.52657 -0.366089 0.714747 2650 
3519 1 -0.027072 -0.00331673 -0.0627559 0.000656 -1.55775 0.0615151 0.671993 2650 
1407 1 -0.020143 -0.0382177 -0.0623269 0.000116 8.40921 1.11941 -7.10925 2650 
4217 1 -0.0289254 -0.022136 -0.0621794 0.000423 -2.71612 -0.784807 1.26352 2650 
2118 1 -0.0297686 -0.0148037 -0.0617801 0.000423 -1.47113 -0.192709 0.708859 2650 
1046 1 -0.0296012 -0.00142705 -0.0621996 0.000116 -1.71814 -0.0455879 0.817677 2650 
4074 1 -0.0293988 -0.000980001 -0.0619569 0.000423 -1.64848 -0.048161 0.782209 2650 
3878 1 -0.0299851 -0.000423564 -0.0616753 0.000423 -1.5798 0.0657812 0.768061 2650 
1640 1 -0.0197049 -0.0215033 -0.0609024 4.2e-05 13.9342 -0.680696 3.12218 2650 
2813 1 -0.0324125 -0.0174709 -0.060782 0.000116 -1.71129 -0.0815606 0.912558 2650 
2663 1 -0.0310398 -0.0155882 -0.0611513 0.000423 -1.51546 -0.193117 0.769232 2650 
1278 1 -0.0318933 -0.00264762 -0.0610561 0.000116 -1.90441 -0.298622 0.994788 2650 
3409 1 -0.0298818 -0.00229685 -0.0614677 0.000656 -1.62832 -0.124225 0.791588 2650 
4342 1 -0.0332826 -0.0277184 -0.0603099 0.000116 2.42999 1.14364 -1.34102 2650 
691 1 -0.0320927 -0.021361 -0.0606053 0.000423 -1.26838 -0.116696 0.671654 2650 
981 1 -0.00538828 -0.0439507 -0.0597288 4.2e-05 5.52874 -2.19796 4.80623 2650 
3741 1 -0.0341953 -0.0378543 -0.0594444 0.000423 -0.0835946 0.230813 0.0480876 2650 
2538 1 -0.0332032 -0.0145944 -0.059739 0.000656 -1.60324 -0.0639759 0.891092 2650 
528 1 -0.0344262 -0.0108763 -0.0596646 0.000116 -1.26574 -0.294993 0.730324 2650 
3582 1 -0.0341999 -0.0102581 -0.0597946 0.000116 -1.11393 -0.140539 0.637118 2650 
725 1 -0.0342192 -0.00904084 -0.0597835 0.000116 -1.75299 0.146223 1.00338 2650 
2703 1 -0.0309357 -0.000151827 -0.0596596 0.000116 2.39314 -0.0166426 -1.02201 2650 
1325 1 -0.0342933 -0.0095696 -0.05912 0.000656 -1.72947 0.050232 1.00321 2650 
4048 1 -0.0363103 -0.00920911 -0.058624 4.2e-05 -2.57141 1.34749 1.59267 2650 
1453 1 -0.0362279 -0.0146337 -0.0582279 0.000423 -1.06287 0.0639675 0.661291 2650 
2560 1 -0.0364967 -0.00895866 -0.0580598 0.000423 -1.8099 0.0288851 1.13771 2650 
3319 1 -0.0362026 -0.00619519 -0.0582437 0.000423 -1.77357 0.133915 1.1024 2650 
3375 1 -0.0366627 -0.00530617 -0.0583169 0.000116 1.17781 0.7278 -0.740468 2650 
1757 1 -0.0372038 -0.0021155 -0.0580611 4.2e-05 -3.11569 0.323115 1.99644 2650 
91 1 -0.0382125 -0.0136705 -0.0573134 0.000116 -1.84988 -0.402548 1.23337 2650 
2196 1 -0.0379557 -0.0123341 -0.0575723 4.2e-05 -2.67491 -0.201432 1.76349 2650 
534 1 -0.0399346 -0.0288852 -0.0561271 0.000116 -1.97433 -1.33405 1.40474 2650 
2091 1 -0.039945 -0.0405946 -0.055458 0.000656 -0.494103 -0.353671 0.35589 2650 
1734 1 -0.0407608 -0.0184154 -0.05553 0.000116 -1.87336 -0.25179 1.37511 2650 
1185 1 -0.0414196 -0.0235513 -0.0550404 0.000116 2.9854 1.28033 -2.24661 2650 
2376 1 -0.0418867 -0.0135528 -0.0546857 0.000116 -0.533502 -1.10235 0.408637 2650 
1886 1 -0.0416622 -0.00687614 -0.0544721 0.000423 -1.04973 -0.224932 0.802869 2650 
2846 1 -0.0304422 -0.0228676 -0.0538439 4.2e-05 2.97459 -0.498985 -8.55965 2650 
3963 1 -0.0418418 -0.00321357 -0.0543343 0.000423 -0.560489 -0.26707 0.431622 2650 
3904 1 -0.0429683 -0.0018365 -0.05384 0.000116 0.625522 -0.394513 -0.499212 2650 
13 1 -0.0418028 -0.00146291 -0.0543642 0.000423 -1.01149 0.115443 0.777772 2650 
419 1 -0.0431659 -0.0331006 -0.0536818 0.000116 2.31697 -0.713425 -1.86309 2650 
2717 1 -0.0432482 -0.0189192 -0.0536155 0.000116 0.680099 1.0727 -0.548592 2650 
3764 1 -0.0428534 -0.0151532 -0.0535401 0.000423 -2.47557 -0.36644 1.98144 2650 
3479 1 -0.0448232 -0.00136133 -0.0523059 0.000116 -0.447492 0.0568353 0.38348 2650 
1020 1 -0.0442647 -0.000510441 -0.0523792 0.000423 -1.19441 -0.0127121 1.00937 2650 
2139 1 -0.044862 -0.000954183 -0.0518686 0.000423 -1.17393 -0.0805726 1.01543 2650 
491 1 -0.0454476 -0.000426083 -0.0513562 0.000423 -1.15314 -0.00166557 1.02047 2650 
2765 1 -0.0459801 -0.0197006 -0.0507284 0.000423 0.113071 0.627727 -0.117345 2650 
2790 1 -0.0470914 -0.0335137 -0.0498532 0.000423 -1.04307 -0.029934 0.985281 2650 
3619 1 -0.0471937 -0.0302637 -0.0502789 4.2e-05 -1.78439 -1.02629 1.6749 2650 
2177 1 -0.0476239 -0.0280252 -0.0497694 0.000116 4.50585 5.14759 -4.31161 2650 
1462 1 -0.0478992 -0.00741353 -0.0490776 0.000423 -0.896482 -0.0103825 0.874956 2650 
4345 1 -0.00873889 -0.00449639 -0.0492175 0.000116 3.94262 -1.27588 1.76435 2650 
1008 1 -0.0489427 -0.0420205 -0.0480454 0.000423 0.0844267 -0.650235 -0.237106 2650 
1341 1 -0.0491187 -0.0410032 -0.0478514 0.000423 -0.739766 -0.202013 0.874027 2650 
822 1 -0.0493943 -0.000944594 -0.0475725 0.000423 -0.750818 -0.0559044 0.779571 2650 
601 1 -0.0501266 -0.0345188 -0.0468006 0.000423 3.81112 0.0817873 -4.08196 2650 
1404 1 -0.0460328 -0.0419357 -0.0462814 0.000116 4.63837 -0.72856 -2.51806 2650 
152 1 -0.0504849 -0.010192 -0.0464136 0.000423 -1.35075 -0.181103 1.46924 2650 
4006 1 -0.0536754 -0.00291643 -0.0431738 0.000116 -0.0329625 -0.211181 0.0409803 2650 
4297 1 -0.0536314 -0.000987011 -0.0427389 0.000423 -0.903997 -0.0376552 1.13439 2650 
1612 1 -0.0516988 -0.000207398 -0.0433566 0.000116 0.710024 -0.0202709 -1.23324 2650 
4213 1 -0.0546067 -0.00123003 -0.0414856 0.000423 -0.876738 -0.0771725 1.15403 2650 
4150 1 -0.0553874 -0.000941827 -0.0409544 0.000116 -0.930739 0.0673873 1.25875 2650 
3692 1 -0.0564052 -0.040723 -0.0395408 0.000116 -0.726487 -0.347901 1.03634 2650 
3748 1 -0.0556941 -0.0407205 -0.0400139 0.000423 -0.638596 -0.211271 0.888841 2650 
2112 1 -0.0560518 -0.0373447 -0.0395113 0.000423 -0.321135 -0.423713 0.45557 2650 
3636 1 -0.0566314 -0.0184289 -0.0386759 0.000423 -0.40566 0.30128 0.593989 2650 
4153 1 -0.0573516 -0.0400473 -0.0376616 0.000116 3.78453 0.349653 -4.00115 2650 
1180 1 -0.0585358 -0.0235402 -0.0363123 0.000116 -0.650815 0.0124257 1.04912 2650 
3817 1 -0.0583772 -0.0196097 -0.0365484 0.000116 2.01059 3.05203 -2.70423 2650 
1968 1 -0.0584659 -0.00877958 -0.0364246 0.000116 -0.247136 -0.417255 0.396683 2650 
2018 1 -0.05848 -0.0374158 -0.0358195 0.000423 -0.360643 -0.233322 0.588798 2650 
4373 1 -0.0586224 -0.0237691 -0.0361262 4.2e-05 -0.896482 -0.706591 1.0756 2650 
2208 1 -0.0581412 -0.0126303 -0.0359278 0.000656 -0.991202 -0.495674 1.60404 2650 
1805 1 -0.0587109 -0.043393 -0.0354399 0.000423 -0.478645 -0.0422395 0.792939 2650 
2340 1 -0.0589483 -0.0370685 -0.0350435 0.000423 -0.437853 -0.380769 0.736532 2650 
1132 1 -0.0597162 -0.0103143 -0.0337182 0.000423 -0.989113 -0.307229 1.75176 2650 
429 1 -0.0600603 -0.00913319 -0.033731 0.000116 1.47691 0.623848 -2.62974 2650 
1690 1 -0.0586602 -0.0201587 -0.0329479 0.000423 4.29183 0.532468 -6.49876 2650 
1938 1 -0.060994 -0.0286737 -0.0320117 0.000116 0.0363654 -0.355271 -0.0692894 2650 
3031 1 -0.040558 -0.00448341 -0.0322212 0.000116 -6.2402 -0.125483 -4.96066 2650 
1047 1 -0.0615283 -0.0102988 -0.0309724 0.000116 -0.707326 -0.377524 1.40514 2650 
3431 1 -0.0616218 -0.0325455 -0.0300949 0.000423 -0.514727 0.0593925 1.05395 2650 
1946 1 -0.0619304 -0.00578572 -0.0301604 0.000116 1.83013 -0.519827 -3.75794 2650 
3543 1 -0.0625733 -0.0395016 -0.028063 0.000423 -0.339423 -0.356879 0.756827 2650 
365 1 -0.0625107 -0.023927 -0.0282021 0.000423 -0.416927 -0.0967371 0.924131 2650 
871 1 -0.06297 -0.0184664 -0.0281067 4.2e-05 0.0459277 -0.0351457 -0.102896 2650 
1712 1 -0.0636609 -0.0441466 -0.0263117 0.000116 0.00956556 0.022563 -0.0231437 2650 
2823 1 -0.0586848 -0.0226988 -0.0257304 0.000116 2.80438 -1.08456 -5.22561 2650 
3881 1 -0.0640968 -0.0341746 -0.0243834 0.000423 -0.34415 -0.325603 0.904668 2650 
2875 1 -0.0645625 -0.00268367 -0.0231221 0.000423 -0.66963 -0.14264 1.86977 2650 
1224 1 -0.0646442 -0.00130436 -0.0228928 0.000423 -0.642692 -0.028551 1.81482 2650 
343 1 -0.0648957 -0.00193534 -0.0221697 0.000423 -0.616229 -0.0564662 1.80384 2650 
1945 1 -0.0654646 -0.0112907 -0.0214339 0.000116 -0.571854 0.194701 1.74659 2650 
4244 1 -0.00546963 -0.00649257 -0.0194122 0.000116 -0.455806 -0.837561 -1.68582 2650 
2212 1 -0.0658877 -0.041267 -0.0181662 0.000656 0.0305654 -0.0800508 -0.110859 2650 
3196 1 -0.0662024 -0.0055491 -0.0178939 0.000423 -0.363703 0.0910223 1.3456 2650 
3418 1 -0.0661652 -0.000925473 -0.0180309 0.000423 -0.360677 -0.0594971 1.32352 2650 
3688 1 -0.0667881 -0.0299221 -0.0168634 0.000116 -0.25337 0.297955 1.00348 2650 
2147 1 -0.0661077 -0.0215613 -0.0169969 0.000116 -1.27073 -0.627726 -3.20314 2650 
3284 1 -0.00213095 -0.00351687 -0.0171298 4.2e-05 -0.262405 -0.052796 -2.10935 2650 
606 1 -0.000183 0.000981027 -0.016592 0.000116 0 -0.011753 0 2650 
3503 1 -9.76545e-05 0.00297283 -0.0165971 4.2e-05 -0.0351311 0.0114577 -0.000362163 2650 
2726 1 -0.000648242 0.00930597 -0.0167128 0.000116 0.0026577 0.00672332 0.0197797 2650 
999 1 -0.000159706 0.000130536 -0.0160307 0.000656 -0.00841998 -0.0161411 -0.0218233 2650 
4227 1 -0.000239322 0.00315587 -0.0163433 0.000116 0.00593372 -0.017543 0.0130313 2650 
2301 1 -0.00436972 0.00321001 -0.0159343 4.2e-05 -0.00116259 -0.0070103 0.00459775 2650 
2013 1 -0.00304057 0.00315839 -0.0158261 0.000423 -0.00154235 0.00221798 0.00156406 2650 
2283 1 -0.00353251 0.00474736 -0.0163586 0.000116 -0.00010552 0.00956354 0.000789399 2650 
2520 1 -0.000123283 0.00490793 -0.0164266 4.2e-05 0.00318265 0.000380138 0.00682554 2650 
978 1 -0.00171168 0.00616882 -0.0164656 0.000116 0.0180122 -0.00353228 -0.00159853 2650 
3934 1 -0.001977 0.00574303 -0.016218 0.000116 0 -0.011753 0 2650 
3365 1 -0.00134882 0.0065675 -0.0160751 0.000116 0.015804 0.0241832 0.0212134 2650 
3150 1 -0.00257043 0.00992942 -0.0164256 0.000116 -0.0182263 -0.0087302 -0.0269448 2650 
938 1 -0.00155322 0.00994295 -0.01616 0.000116 -0.00119823 0.000558801 -0.00633771 2650 
302 1 -0.00245787 0.0107188 -0.016415 0.000116 -0.0347922 0.0241041 0.0152166 2650 
3051 1 -0.00170397 0.0107848 -0.0163878 0.000116 -0.0677691 -0.171446 -0.0100126 2650 
1483 1 -0.000499882 0.0106954 -0.0163779 0.000423 -0.000431738 0.0094693 0.00416488 2650 
3007 1 -0.00308905 0.0117481 -0.0160608 0.000423 -0.00754521 0.0118776 -0.00214285 2650 
371 1 -0.000669624 0.0121323 -0.016356 0.000423 -0.00486135 0.00835155 -0.00501272 2650 
188 1 -0.00345562 0.0139911 -0.016046 0.000116 -0.0148612 0.0228045 0.00418427 2650 
2713 1 -0.000695671 0.0166081 -0.0157966 0.000116 0.00037122 0.035974 0.00535071 2650 
93 1 -0.00401252 0.0212771 -0.016232 0.000116 0.0714693 0.0500535 -0.0191255 2650 
1785 1 -1.99636e-05 0.02795 -0.0161463 0.000423 -0.0110877 0.0503473 -0.062572 2650 
1717 1 -0.00404544 0.0322908 -0.0161856 0.000116 0.0090039 0.0753863 0.0163861 2650 
1248 1 -7.25175e-06 0.0500382 -0.0163683 0.000423 -0.0646233 -0.0560258 -0.01363 2650 
2264 1 -0.00155989 0.0536113 -0.0160241 0.000116 -0.0637592 0.11185 0.0253368 2650 
1606 1 -0.0670845 -0.0253234 -0.0156427 0.000116 0.420891 -0.473102 -1.80501 2650 
30 1 -0.00253903 -0.00276295 -0.0152864 0.000423 -0.0139928 -0.0214008 0.00726417 2650 
3011 1 -9.11745e-05 -0.00315507 -0.0156056 0.000423 0.0180353 -0.0317081 -0.0392676 2650 
733 1 -0.067176 -0.000822301 -0.0152449 0.000116 -0.344133 0.367077 1.5164 2650 
2399 1 -0.002418 0.00119503 -0.015541 0.000116 0 -0.011753 0 2650 
3637 1 -0.0055698 0.00450071 -0.0151829 0.000423 -0.00704251 0.0124689 0.006236 2650 
1679 1 -0.0043855 0.00534149 -0.015701 0.000423 -0.00453172 0.0157125 0.00260684 2650 
889 1 -0.000822477 0.00492777 -0.0154642 0.000656 0.0221019 0.0158351 0.0220207 2650 
1827 1 -0.00423551 0.00618719 -0.0154077 0.000116 -0.00517626 -0.0457281 -0.00851659 2650 
3830 1 -0.006879 0.00729503 -0.015411 4.2e-05 0 -0.011753 0 2650 
2438 1 -0.00633004 0.00723312 -0.0151791 0.000423 -0.00472103 -0.000373669 -0.00125399 2650 
3364 1 -0.00681793 0.00884524 -0.0151722 0.000116 -0.00179506 0.0163753 -0.0232219 2650 
70 1 -0.00145237 0.0139154 -0.0154322 0.000116 0.0560864 0.0328811 0.00597028 2650 
2793 1 -0.000840231 0.0137523 -0.0151807 0.000423 0.00400332 0.0260717 0.000754087 2650 
3838 1 -0.00493996 0.0147443 -0.0153455 0.000656 0.0157867 0.0260395 0.00729433 2650 
2182 1 -0.00145798 0.0147009 -0.0157834 0.000116 0.00266263 0.0360122 0.0211071 2650 
2466 1 -0.00166804 0.0233904 -0.0154026 0.000423 0.0618857 0.0331724 -0.00268308 2650 
1195 1 -0.00198772 0.0365445 -0.015222 0.000116 0.0557766 0.0782116 -0.0138054 2650 
3330 1 -0.067033 -0.0045306 -0.0144752 0.000423 -0.400453 -0.161945 1.85446 2650 
1053 1 -0.007469 -0.00264697 -0.014946 0.000116 0 -0.011753 0 2650 
421 1 -0.00358543 0.00099592 -0.0149408 0.000116 -0.434857 0.264773 0.172681 2650 
857 1 -0.00835992 0.00375199 -0.0143358 0.000116 -0.0319262 0.0179271 0.0379105 2650 
3787 1 -0.00689244 0.00392767 -0.0149348 0.000116 -0.0024271 -0.00223267 -0.0195234 2650 
1611 1 -0.00064294 0.00381058 -0.0146818 0.000116 0.0444256 -0.019621 0.0278665 2650 
1192 1 -0.00713104 0.00669215 -0.014566 0.000116 0.00510585 0.0133553 0.012363 2650 
581 1 -0.0055904 0.00813046 -0.0144034 0.000423 0.00044719 0.0010883 0.00185987 2650 
2313 1 -0.00317552 0.00791171 -0.0148718 0.000656 0.00739229 0.000646052 0.0178581 2650 
2774 1 -0.00746773 0.0109017 -0.0145459 0.000423 -0.0403569 0.0250138 -0.0137733 2650 
2781 1 -0.00555729 0.0115053 -0.0146224 0.000423 0.00955411 0.0107278 0.0121748 2650 
86 1 -0.00534119 0.0110903 -0.0149561 0.000116 -0.00883451 0.00207244 -0.00541251 2650 
2969 1 -0.00277863 0.0112394 -0.0147733 0.000656 -0.00667616 0.014076 0.00443217 2650 
1802 1 -0.0031582 0.0123872 -0.0142432 0.000423 0.00500259 -0.000364755 -0.0111755 2650 
2453 1 -0.00591229 0.012751 -0.0143453 0.000423 0.00287214 0.0261989 -0.0126472 2650 
2191 1 -0.00245725 0.0135181 -0.0145644 4.2e-05 -0.00764734 0.00298638 -0.00836536 2650 
2345 1 -0.0019657 0.0139478 -0.0142546 0.000423 -0.0175833 0.0131789 -0.0282092 2650 
1228 1 -0.00289744 0.0144255 -0.014625 0.000423 -0.0165339 0.0339414 0.00465399 2650 
3644 1 -0.00149924 0.0150542 -0.0145595 0.000423 -0.0118967 0.0391079 0.0034562 2650 
2585 1 -0.00227956 0.0290529 -0.0148423 0.000116 -0.0221426 0.0759057 0.0070692 2650 
3211 1 -0.00567375 0.0556735 -0.0146594 0.000423 0.121461 0.0923792 -0.0696515 2650 
736 1 -0.00922527 -0.00209056 -0.0138915 0.000116 -0.0307431 -0.0170391 0.0144389 2650 
509 1 -0.00793382 -0.000970216 -0.0139953 0.000116 -0.00480979 -0.0076817 0.0108723 2650 
1991 1 -0.00879898 0.000131511 -0.0136136 0.000656 -0.0163411 -0.00223454 0.0120027 2650 
763 1 -0.0068462 0.00337441 -0.013455 4.2e-05 0.0429385 0.0136209 0.0378616 2650 
220 1 -0.0032668 0.00381894 -0.0135961 4.2e-05 0.00197382 0.00663681 0.00671825 2650 
2666 1 -0.00752911 0.00398955 -0.013959 0.000423 0.0107963 0.0809594 0.0204513 2650 
1288 1 -0.002467 0.00492403 -0.014044 0.000116 0 -0.011753 0 2650 
3515 1 -0.00861933 0.00624869 -0.0134967 0.000656 -0.00454215 -0.00749919 0.00616721 2650 
1618 1 -0.00939335 0.0076459 -0.0139068 0.000116 -0.00572111 -0.00394584 0.0040493 2650 
1769 1 -0.00872642 0.00774504 -0.0135306 0.000656 -0.00750319 -0.00749823 0.00854524 2650 
2483 1 -0.00553879 0.00721535 -0.0137744 0.000116 0.00771374 -0.0189039 -0.0218467 2650 
233 1 -0.00306924 0.00861848 -0.0140634 0.000423 0.0118986 0.000604732 0.0195045 2650 
1409 1 -0.000561499 0.00867781 -0.0139319 0.000116 -0.00338114 -0.0124825 -0.00177889 2650 
842 1 -0.00805898 0.00885573 -0.0141609 0.000116 -0.0132472 -0.000581938 -0.0143857 2650 
2851 1 -0.0100684 0.0097523 -0.0135653 4.2e-05 -0.0373658 -0.0766061 0.00342403 2650 
4190 1 -0.00939821 0.0095136 -0.0135527 0.000423 -0.00626579 0.00565015 0.00416389 2650 
793 1 -0.000110684 0.00949373 -0.0140267 0.000423 -0.00384688 0.00642406 -0.0108379 2650 
438 1 -0.00853281 0.0110497 -0.0137486 4.2e-05 0.0308848 -0.00685895 0.0152964 2650 
128 1 -0.000941485 0.0145047 -0.0141121 0.000423 -0.00458662 0.0273274 -0.00640456 2650 
3145 1 -0.00894779 0.0153395 -0.0139199 0.000116 0.00413084 0.0258652 0.0123186 2650 
3471 1 -0.00732317 0.0154982 -0.0140856 0.000116 0.00654915 0.0415659 -0.0136084 2650 
4321 1 -0.000186728 0.0157046 -0.0141571 0.000423 -0.033158 0.0125251 -0.00503274 2650 
2924 1 -0.0100737 0.0174199 -0.0135384 0.000116 -0.0447463 0.0323973 0.0311383 2650 
4234 1 -0.00470454 0.0349937 -0.013594 0.000116 0.00512064 0.0508026 0.0366661 2650 
1654 1 -0.00774848 0.0551288 -0.0139762 0.000656 0.102592 0.082001 -0.0771439 2650 
762 1 -0.067295 -0.00933967 -0.0130906 4.2e-05 -3.19429 1.31498 -0.48299 2650 
1763 1 -0.00373726 -5.93284e-05 -0.0129772 0.000656 0.0110536 0.0386342 0.0470271 2650 
623 1 -0.00875745 3.9766e-05 -0.0128237 0.000116 -0.00176155 0.0164163 -0.0155171 2650 
2609 1 -0.00859469 0.00142504 -0.0133365 0.000116 -0.00705034 0.0126459 0.00789545 2650 