ITEM: TIMESTEP
1878852
ITEM: NUMBER OF ATOMS
4381
ITEM: BOX BOUNDS ff ff ff
-0.15 0.15
-0.15 0.06
-0.15 0.15
ITEM: ATOMS id type x y z radius vx vy vz density 
1845 1 -0.0362637 -0.0585356 -0.0585659 0.000116 -0.0944643 -0.0628339 0.0584918 2650 
741 1 -0.0530472 -0.0600481 -0.0439433 0.000116 -0.757349 -0.0429453 0.914252 2650 
3313 1 -0.0596714 -0.0507898 -0.0337975 0.000423 -1.45402 -0.538985 2.56716 2650 
3444 1 -0.0628423 -0.0522835 -0.0274554 0.000423 -1.35144 -0.20587 3.0933 2650 
3143 1 -0.0676373 -0.0479202 0.0130469 0.000116 0.310589 0.520259 1.61015 2650 
634 1 -0.0554117 -0.0623409 0.0396057 0.000116 0.236887 -1.08012 -2.4117 2650 
2855 1 -0.0442787 -0.0619072 0.0507126 4.2e-05 -11.679 0.450199 -4.00599 2650 
3810 1 -0.0248064 -0.0623044 0.0642625 0.000116 -0.661749 -0.00763203 -0.255446 2650 
1856 1 -0.0074577 -0.0552712 0.0684792 0.000116 -1.24806 0.472073 -0.13592 2650 
3812 1 -0.00242152 -0.047537 0.0688415 0.000116 -1.74547 -0.853269 -0.0613974 2650 
1638 1 -0.000936648 -0.0414037 -0.0688778 0.000116 -1.17145 -0.907795 0.0159301 2650 
3252 1 -0.00670357 -0.0410422 -0.0680639 0.000116 -1.04011 -0.577129 1.46548 2650 
2800 1 -0.00764979 -0.0207606 -0.0681063 0.000423 -2.74964 -0.339893 0.163112 2650 
2083 1 -0.0106839 -0.0157095 -0.0681254 4.2e-05 -3.17504 -0.25759 0.49793 2650 
1878 1 -0.00262015 -0.0157218 -0.068296 0.000656 -3.16292 -0.55047 0.121345 2650 
416 1 -0.00660447 -0.00835563 -0.0685668 0.000116 -3.18789 -0.177648 0.307063 2650 
3381 1 -0.0078648 -0.00537363 -0.0684337 0.000116 -3.18208 -0.120463 0.365704 2650 
4020 1 -0.0123964 -0.00907087 -0.0677595 0.000116 -3.15015 -0.21889 0.576311 2650 
1555 1 -0.0156699 -0.0166193 -0.0667638 0.000423 -3.11411 -0.309096 0.730901 2650 
2576 1 -0.0161343 -0.0154403 -0.0666531 0.000423 -3.14168 -0.336639 0.760484 2650 
2641 1 -0.014182 -0.0109854 -0.0668587 0.000656 -3.13392 -0.237371 0.664763 2650 
4250 1 -0.0204527 -0.0140196 -0.0657777 0.000116 -3.10646 -0.226399 0.965912 2650 
2002 1 -0.022643 -0.00901282 -0.0647321 0.000423 -3.05009 -0.21851 1.06691 2650 
122 1 -0.0225003 -0.0187466 -0.0645364 0.000656 -3.00276 -0.34595 1.0469 2650 
3642 1 -0.0245842 -0.0123242 -0.0640201 0.000423 -3.0047 -0.311527 1.15383 2650 
3399 1 -0.0240035 -0.00604178 -0.0646455 4.2e-05 -3.00013 -0.139604 1.11398 2650 
3385 1 -0.0266954 -0.00874861 -0.063501 0.000116 -2.92612 -0.257507 1.23012 2650 
2670 1 -0.0268575 -0.0218226 -0.0631001 0.000423 -2.58912 -0.340273 1.10201 2650 
3079 1 -0.026795 -0.0178249 -0.0628748 0.000656 -2.96145 -0.376913 1.26206 2650 
632 1 -0.0282162 -0.0125033 -0.06284 0.000116 -2.92788 -0.260086 1.31467 2650 
4309 1 -0.0292669 -0.0164982 -0.0620194 0.000423 -2.89946 -0.29307 1.36825 2650 
4268 1 -0.029831 -0.0114614 -0.0621717 4.2e-05 -2.88303 -0.269648 1.38332 2650 
3692 1 -0.0295272 -0.00938684 -0.0622348 0.000116 -2.89509 -0.195209 1.37357 2650 
3479 1 -0.00239626 -0.00774923 -0.0622427 0.000116 -0.3889 -0.328266 -9.67329 2650 
1560 1 -0.0308167 -0.00887662 -0.0612641 0.000423 -2.87559 -0.186052 1.44646 2650 
406 1 -0.0304607 -0.00532457 -0.0614229 0.000116 -2.87142 -0.116219 1.48939 2650 
1735 1 -0.03256 -0.00621511 -0.0607031 0.000116 -2.83319 -0.180856 1.51967 2650 
3534 1 -0.0371531 -0.0282591 -0.057642 0.000423 -2.64409 -0.265353 1.70424 2650 
538 1 -0.0373751 -0.00675848 -0.057863 0.000116 -2.68833 -0.156894 1.73646 2650 
21 1 -0.0401268 -0.0284468 -0.0556129 0.000423 -2.41271 -0.521291 1.74086 2650 
27 1 -0.0402769 -0.0177392 -0.0555043 0.000423 -2.59785 -0.319718 1.88514 2650 
4293 1 -0.0418119 -0.0158122 -0.0543574 0.000423 -2.52266 -0.344047 1.94044 2650 
3650 1 -0.0417712 -0.0108983 -0.0543886 0.000423 -2.54237 -0.275853 1.95257 2650 
1943 1 -0.043514 -0.0264239 -0.0534 0.000116 -0.953517 -0.851326 0.776991 2650 
2663 1 -0.0432297 -0.00934296 -0.0532367 0.000423 -2.48207 -0.204954 2.01551 2650 
671 1 -0.0398518 -0.0074273 -0.0534442 0.000656 -3.80748 -0.223963 -0.0713632 2650 
476 1 -0.0455702 -0.0103869 -0.0512475 0.000423 -2.3932 -0.20795 2.12807 2650 
245 1 -0.0464869 -0.0108047 -0.0504175 0.000423 -2.36021 -0.233721 2.1762 2650 
811 1 -0.038238 -0.00498757 -0.0501876 0.000423 -5.93078 -0.15437 -7.78176 2650 
3845 1 -0.0491599 -0.0205399 -0.0474768 0.000656 -2.33458 -0.398326 2.10907 2650 
259 1 -0.0494349 -0.00801022 -0.0475305 0.000423 -2.22199 -0.181898 2.31102 2650 
3619 1 -0.0503756 -0.00948016 -0.0470904 4.2e-05 -2.18658 -0.186612 2.33913 2650 
4345 1 -0.0510615 -0.0197849 -0.0462357 0.000116 -2.15276 -0.38327 2.37745 2650 
2920 1 -0.0513261 -0.0141905 -0.0459418 0.000116 -2.14097 -0.313583 2.39189 2650 
1568 1 -0.0531818 -0.0429104 -0.0432972 0.000423 -1.57109 -0.621514 1.92976 2650 
2057 1 -0.0539718 -0.0111677 -0.0428026 0.000116 -1.98991 -0.238247 2.50918 2650 
1383 1 -0.0547922 -0.0153243 -0.0417473 0.000116 -1.94482 -0.270294 2.55253 2650 
3156 1 -0.0559211 -0.0214471 -0.0402213 0.000116 -0.637653 -0.463826 0.910875 2650 
2846 1 -0.0569828 -0.00509193 -0.0388352 4.2e-05 -1.80336 -0.111917 2.64607 2650 
2618 1 -0.0572278 -0.0160261 -0.0383406 0.000116 -1.76934 -0.314062 2.64095 2650 
3652 1 -0.0454602 -0.0107527 -0.0362313 0.000423 -6.838 -0.60504 -5.46709 2650 
1760 1 -0.0587879 -0.00374671 -0.0360443 4.2e-05 0.155846 -0.243525 -0.254184 2650 
2123 1 -0.0593842 -0.0177084 -0.0342998 0.000423 -1.60781 -0.361958 2.78365 2650 
3540 1 -0.0599589 -0.00795386 -0.0326939 0.000423 -1.83258 -0.193698 2.68245 2650 
3329 1 -0.0605728 -0.0264365 -0.0321541 0.000423 -1.27346 -0.58549 2.39898 2650 
3583 1 -0.055381 -0.0052778 -0.0318558 0.000116 -8.68873 -0.155882 -4.99786 2650 
1016 1 -0.0611793 -0.015053 -0.0309846 0.000423 -1.43927 -0.472332 2.84184 2650 
1239 1 -0.0623606 -0.040508 -0.0285326 0.000423 -1.3374 -1.18413 2.92301 2650 
3718 1 -0.0441247 -0.0204033 -0.029157 4.2e-05 3.47022 -0.139882 -4.91991 2650 
691 1 -0.062607 -0.0151182 -0.0279878 0.000423 -1.30905 -0.34541 2.92826 2650 
3409 1 -0.0629094 -0.0228405 -0.0267136 0.000656 -1.19406 -0.718481 2.81196 2650 
2208 1 -0.0632999 -0.0098405 -0.0257746 0.000656 -1.20863 -0.228679 2.96827 2650 
4068 1 -0.00114318 -0.00556174 -0.0260715 0.000423 0.0653894 -0.337698 -3.34476 2650 
4025 1 -0.0642999 -0.00773897 -0.0247091 0.000116 -1.1486 -0.169806 2.98899 2650 
1990 1 -0.0639606 -0.012153 -0.0240885 0.000656 -1.13629 -0.277319 3.01712 2650 
2238 1 -0.0130816 -0.00936141 -0.0243149 0.000423 -1.61675 -0.811841 -3.07536 2650 
1687 1 -0.0645225 -0.0287882 -0.0232336 0.000423 -0.98769 -0.314032 2.74293 2650 
2337 1 -0.0648455 -0.00610765 -0.0223163 0.000423 -1.04287 -0.143501 3.03032 2650 
4138 1 -0.0217581 -0.00513091 -0.0229044 0.000116 -3.3366 -0.178967 -3.48272 2650 
3073 1 -0.0124402 -0.00736797 -0.0198674 4.2e-05 -1.60403 -1.005 -2.62455 2650 
4074 1 -0.00121458 -0.00407475 -0.0199008 0.000423 -0.225557 -0.118613 -2.7471 2650 
3482 1 -0.0660577 -0.0105884 -0.0195295 0.000116 -0.905971 -0.274863 3.0644 2650 
3622 1 -0.00736075 -0.00653193 -0.0196073 0.000656 -0.70383 -0.588307 -1.9479 2650 
3586 1 -0.0666971 -0.00493678 -0.0172197 0.000116 -0.800679 -0.105598 3.10127 2650 
606 1 -0.000183 0.00466867 -0.016592 0.000116 0 -0.011753 0 2650 
2713 1 -0.000763 0.0116397 -0.016767 0.000116 0 -0.011753 0 2650 
1387 1 -0.0669257 -0.00937382 -0.0163088 0.000116 -0.750793 -0.244017 3.08099 2650 
1068 1 -0.0669724 -0.00600072 -0.0161158 0.000116 -0.748685 -0.14028 3.11132 2650 
4116 1 -0.004072 -0.000988329 -0.016193 0.000116 0 -0.011753 0 2650 
1808 1 -0.00185083 -0.00101329 -0.0162036 0.000423 -0.0433965 -0.0140971 -0.0284518 2650 
93 1 -0.00354 -0.000577329 -0.016299 0.000116 0 -0.011753 0 2650 
3733 1 -0.00289623 -0.000581759 -0.0158416 0.000656 -0.0635247 0.0243179 -0.00555497 2650 
541 1 -0.0024125 -0.000159176 -0.0161439 4.2e-05 0.00917066 -0.0948108 -0.169195 2650 
1991 1 -0.002768 0.00100167 -0.01599 0.000656 0 -0.011753 0 2650 
736 1 -0.003429 0.00259367 -0.016474 0.000116 0 -0.011753 0 2650 
2013 1 -0.00308961 0.00385958 -0.0160987 0.000423 0.00266818 -0.00871737 -0.00337826 2650 
3789 1 -0.00224888 0.00522608 -0.0163783 0.000116 -0.0185147 0.0392615 -0.0216295 2650 
3546 1 -0.002797 0.00573067 -0.016252 0.000423 0 -0.011753 0 2650 
188 1 -0.00068 0.00621067 -0.016516 0.000116 0 -0.011753 0 2650 
2301 1 -0.004222 0.00644167 -0.016305 4.2e-05 0 -0.011753 0 2650 
3616 1 -0.000938 0.00700567 -0.016074 4.2e-05 0 -0.011753 0 2650 
3934 1 -0.001977 0.00943067 -0.016218 0.000116 0 -0.011753 0 2650 
456 1 -0.00405562 0.04297 -0.0160018 0.000423 -0.732676 0.0607743 0.465342 2650 
455 1 -0.0529266 -0.00815285 -0.015102 0.000423 -8.21686 -0.402758 -2.33623 2650 
3295 1 -0.00340297 -0.00313706 -0.0154043 0.000656 -0.0797054 0.00773994 0.0926435 2650 
3441 1 -0.00513755 -0.00141007 -0.0151948 0.000423 0.0910415 0.168069 0.0762471 2650 
330 1 -0.001698 -0.00131333 -0.015557 4.2e-05 0 -0.011753 0 2650 
2965 1 -2.2e-05 -0.00100733 -0.015341 4.2e-05 0 -0.011753 0 2650 
1679 1 -0.00360361 0.00351242 -0.0154659 0.000423 -0.000267589 -0.00703629 -0.00433961 2650 
3380 1 -0.00313224 0.00403713 -0.015061 0.000116 0.0634779 0.0483386 -0.0170944 2650 
3121 1 -0.00684108 0.00506695 -0.0150092 0.000423 0.0277737 -0.000599869 -0.0089826 2650 
3322 1 -0.00470935 0.00512279 -0.0154856 0.000423 0.00353739 -0.017928 0.0139954 2650 
1219 1 -0.00344246 0.0050847 -0.0151863 0.000656 0.0362784 0.0225017 -0.0291106 2650 
2399 1 -0.002418 0.00488267 -0.015541 0.000116 0 -0.011753 0 2650 
4296 1 -0.00158087 0.00539935 -0.0156267 0.000423 -0.000356005 -0.0132873 -0.00240934 2650 
2293 1 -0.000247724 0.00510787 -0.015464 0.000116 0.0416688 0.071753 -0.100968 2650 
1986 1 -0.0039112 0.00787542 -0.015308 0.000656 0.00762539 0.0149956 0.0116892 2650 
2969 1 -0.001381 0.00745267 -0.015354 0.000656 0 -0.011753 0 2650 
978 1 -0.005372 0.00812867 -0.015286 0.000116 0 -0.011753 0 2650 
3830 1 -0.006879 0.0109827 -0.015411 4.2e-05 0 -0.011753 0 2650 
86 1 -0.002064 0.0106867 -0.015055 0.000116 0 -0.011753 0 2650 
3177 1 -0.001068 0.0104867 -0.015412 4.2e-05 0 -0.011753 0 2650 
938 1 -0.000869 0.0118927 -0.015416 0.000116 0 -0.011753 0 2650 
3632 1 -0.00671606 0.0128136 -0.0151278 0.000423 -0.0240755 -0.00064867 0.0133566 2650 
2701 1 -0.00253167 0.0147067 -0.0152639 0.000116 0.0331549 0.247236 -0.00676049 2650 
1357 1 -0.00608152 0.0182616 -0.0150318 0.000423 -0.0662446 0.165624 0.033916 2650 
1056 1 -0.0428873 -0.0114092 -0.0142798 0.000116 -6.67201 -0.525332 -2.20606 2650 
2256 1 -0.001753 -0.00320333 -0.014775 0.000116 0 -0.011753 0 2650 
747 1 -0.001416 -0.00318333 -0.014317 0.000116 0 -0.011753 0 2650 
3303 1 -0.00730329 -0.00283062 -0.0144866 0.000656 -0.0506127 -0.00576461 0.0644468 2650 
3502 1 -0.001236 -0.00220833 -0.014816 4.2e-05 0 -0.011753 0 2650 
1640 1 -0.001358 -0.000875329 -0.014495 4.2e-05 0 -0.011753 0 2650 
2313 1 -0.005044 -3.13287e-05 -0.014923 0.000656 0 -0.011753 0 2650 
2413 1 -0.003433 -0.000193329 -0.014868 4.2e-05 0 -0.011753 0 2650 
1053 1 -0.007469 0.00104067 -0.014946 0.000116 0 -0.011753 0 2650 
2332 1 -0.003268 0.00133167 -0.014853 0.000423 0 -0.011753 0 2650 
3239 1 -0.002155 0.00125067 -0.014442 0.000116 0 -0.011753 0 2650 
3351 1 -0.00385897 0.00288146 -0.0145477 0.000116 0.0791294 -0.101341 -0.231207 2650 
220 1 -0.003649 0.00394567 -0.014897 4.2e-05 0 -0.011753 0 2650 
3645 1 -0.00197775 0.0036554 -0.0149585 0.000423 -0.016092 0.00258107 0.0270932 2650 
104 1 -0.00218 0.00419467 -0.014554 4.2e-05 0 -0.011753 0 2650 
4165 1 -0.00552681 0.00539274 -0.0147826 0.000656 0.00388545 0.0106393 0.0146387 2650 
3147 1 -0.00200186 0.00517926 -0.0146122 0.000116 -0.00706837 0.0221131 0.0132401 2650 
3564 1 -0.000147 0.00667167 -0.014738 0.000423 0 -0.011753 0 2650 
2438 1 -0.005612 0.00724367 -0.014612 0.000423 0 -0.011753 0 2650 
3365 1 -0.002315 0.00730867 -0.014552 0.000116 0 -0.011753 0 2650 
171 1 -0.00206437 0.00857495 -0.0146403 0.000116 0.0221612 -0.025445 0.125633 2650 
4190 1 -0.007319 0.00897867 -0.014559 0.000423 0 -0.011753 0 2650 
3515 1 -0.00550741 0.00927036 -0.0149409 0.000656 -0.0258541 -0.014476 -0.00535425 2650 
3106 1 -0.00334479 0.00982339 -0.0146431 0.000423 -0.04352 0.00221127 0.120558 2650 
2596 1 -0.00248012 0.0104357 -0.0142962 0.000116 -0.0696583 -0.0414928 -0.0233005 2650 
1228 1 -0.001302 0.0107637 -0.014946 0.000423 0 -0.011753 0 2650 
371 1 -0.000524958 0.0107601 -0.0144609 0.000423 -0.000508818 -0.00613125 -0.00679769 2650 
1974 1 -0.00435101 0.0116897 -0.014982 4.2e-05 -0.0467969 0.0595522 0.116927 2650 
1381 1 -0.00767836 0.0131918 -0.0143372 0.000116 -0.000908202 0.0816555 0.108061 2650 
884 1 -0.00550401 0.0129693 -0.0144179 0.000656 -0.0213431 0.0225291 0.0346991 2650 
728 1 -0.00409118 0.0139159 -0.0144607 0.000116 0.0277452 0.106546 0.043675 2650 
3229 1 -0.0065396 -0.00322276 -0.0134843 0.000423 0.00758146 -0.0257585 0.0260569 2650 
327 1 -0.003849 -0.00296533 -0.013874 4.2e-05 0 -0.011753 0 2650 
2705 1 -0.001432 -0.00314633 -0.013674 0.000116 0 -0.011753 0 2650 
1393 1 -0.009523 -0.00185833 -0.013534 0.000116 0 -0.011753 0 2650 
2939 1 -0.008405 -0.00216233 -0.013483 0.000116 0 -0.011753 0 2650 
4056 1 -0.00337526 -0.00191014 -0.0137081 0.000656 0.0545981 -0.0365229 -0.0165599 2650 
3196 1 -0.00567214 -0.000369077 -0.0137292 0.000423 0.0418395 0.00921167 -0.158288 2650 
2783 1 -0.00313655 -0.000631753 -0.013828 0.000423 0.0164122 0.0046694 -0.00599805 2650 
4126 1 -0.001667 -0.000750329 -0.013741 0.000116 0 -0.011753 0 2650 
3778 1 -0.003893 0.000693671 -0.013816 0.000423 0 -0.011753 0 2650 
955 1 -0.00198427 0.00041759 -0.0138828 0.000116 -0.0472058 0.0174319 0.219851 2650 
856 1 -0.00243799 0.00123566 -0.0138118 0.000116 0.0675892 -0.133711 -0.0889902 2650 
1093 1 -0.000735269 0.00235381 -0.0135392 4.2e-05 -0.16655 0.0307473 -0.14405 2650 
615 1 -0.00890906 0.00294362 -0.0140524 0.000116 -0.252932 -0.215862 0.19003 2650 
1620 1 -0.008456 0.00271267 -0.013856 0.000116 0 -0.011753 0 2650 
2957 1 -0.00665679 0.00336537 -0.0136447 4.2e-05 0.190271 0.24155 -0.0115339 2650 
3587 1 -0.006279 0.00396967 -0.013694 0.000116 0 -0.011753 0 2650 
1569 1 -0.00250463 0.00399651 -0.0136229 0.000423 -0.0214881 0.00570095 0.0411068 2650 
958 1 -0.00412557 0.00766553 -0.0141572 0.000116 -0.112936 0.0629473 -0.172921 2650 
2322 1 -0.00718117 0.00821258 -0.0135772 0.000656 -0.00732336 -0.00366906 -0.00588437 2650 
713 1 -0.00512093 0.00862249 -0.0136889 0.000423 -0.0205718 -0.00213651 0.0254432 2650 
1288 1 -0.002467 0.00861167 -0.014044 0.000116 0 -0.011753 0 2650 
2222 1 -0.000169 0.00924067 -0.014111 0.000423 0 -0.011753 0 2650 
581 1 -0.005568 0.0101327 -0.014167 0.000423 0 -0.011753 0 2650 
1476 1 -0.006941 0.0114117 -0.013435 0.000423 0 -0.011753 0 2650 
3669 1 -0.000544106 0.0116213 -0.01416 0.000423 0.00220454 -0.00743356 -0.00383523 2650 
2250 1 -0.00618697 0.0124942 -0.0135862 0.000423 -0.0796097 0.0756391 0.0421091 2650 
1409 1 -0.00044 0.0123917 -0.013868 0.000116 0 -0.011753 0 2650 
4034 1 -0.00422783 0.0529671 -0.0141171 0.000116 -0.398405 0.494511 0.339202 2650 
3266 1 -0.0676045 -0.00947744 -0.0132155 0.000116 -0.611267 -0.196931 3.12697 2650 
2685 1 -0.00976617 -0.00346061 -0.0128181 0.000423 -0.657803 -0.067388 -0.77948 2650 
3015 1 -0.00837958 -0.00319485 -0.0130829 0.000423 -0.00116941 -0.012348 -0.00262115 2650 
827 1 -0.005975 -0.00328933 -0.013005 0.000116 0 -0.011753 0 2650 
1877 1 -0.00445919 -0.00390037 -0.0128606 0.000656 -0.617337 -0.100839 -1.70199 2650 
2732 1 -0.002992 -0.00319633 -0.013183 0.000116 0 -0.011753 0 2650 
428 1 -0.00922 -0.00311633 -0.013206 0.000116 0 -0.011753 0 2650 
3633 1 -0.00941 -0.00259233 -0.013111 0.000423 0 -0.011753 0 2650 
1320 1 -0.00512582 -0.00291438 -0.0131868 4.2e-05 -0.254702 -0.0436543 -0.0976793 2650 
167 1 -0.004273 -0.00313133 -0.012826 0.000116 0 -0.011753 0 2650 
1487 1 -0.004643 -0.00272233 -0.013241 0.000116 0 -0.011753 0 2650 
3200 1 -0.00699208 -0.00209464 -0.0132814 0.000423 -0.0584286 0.0362387 -0.0708842 2650 
3999 1 -0.00449813 -0.00193251 -0.0127121 0.000423 0.079397 0.0433527 -0.0799067 2650 
3904 1 -0.000516044 -0.000836523 -0.0130352 0.000116 -0.100637 -0.0180957 -0.076892 2650 
3551 1 -0.005293 0.000752671 -0.013215 0.000423 0 -0.011753 0 2650 
1125 1 -0.000351484 0.00143544 -0.0132478 0.000423 -0.0286183 0.00294241 -0.0174616 2650 
4371 1 -0.000719 0.00215067 -0.012831 0.000116 0 -0.011753 0 2650 
2525 1 -0.004063 0.00283867 -0.013231 4.2e-05 0 -0.011753 0 2650 
2283 1 -0.000701 0.00246567 -0.012847 0.000116 0 -0.011753 0 2650 
1595 1 -0.007474 0.00349667 -0.012756 0.000423 0 -0.011753 0 2650 
2619 1 -0.005851 0.00365467 -0.012854 0.000116 0 -0.011753 0 2650 
3880 1 -0.010277 0.00457067 -0.012913 0.000423 0 -0.011753 0 2650 
2609 1 -0.00886 0.00437867 -0.013248 0.000116 0 -0.011753 0 2650 
2485 1 -0.00302614 0.00453131 -0.013 0.000116 0.105115 -0.0174821 0.0881387 2650 
2547 1 -0.00878383 0.00517823 -0.0131346 0.000423 -0.0347886 0.0314203 0.0010098 2650 
3917 1 -0.003984 0.00513967 -0.012703 0.000116 0 -0.011753 0 2650 
2059 1 -0.003583 0.00534867 -0.012756 0.000116 0 -0.011753 0 2650 
2194 1 -0.002781 0.00479267 -0.012701 4.2e-05 0 -0.011753 0 2650 
2918 1 -0.00757 0.00572967 -0.012948 0.000116 0 -0.011753 0 2650 
234 1 -0.00437867 0.0061446 -0.0127047 0.000423 0.00472056 -0.0217141 -0.0831894 2650 
4078 1 -0.00662485 0.00745617 -0.0128733 0.000423 -0.0196946 -0.00953845 0.00130892 2650 
1427 1 -0.002948 0.00767967 -0.013376 4.2e-05 0 -0.011753 0 2650 
4318 1 -0.00791149 0.00858197 -0.0127012 0.000423 -0.00589465 -0.00768269 0.00318441 2650 
3259 1 -0.008055 0.00874467 -0.013388 0.000116 0 -0.011753 0 2650 
70 1 -0.010804 0.00983378 -0.0128919 0.000116 0.00881709 0.0274246 0.0240282 2650 
1795 1 -0.008775 0.00967867 -0.012959 0.000423 0 -0.011753 0 2650 
1769 1 -0.004822 0.00959967 -0.013243 0.000656 0 -0.011753 0 2650 
675 1 -0.0023327 0.00963818 -0.0130917 0.000423 -0.0542955 0.145292 -0.148325 2650 
205 1 -0.000744 0.0103957 -0.01334 0.000116 0 -0.011753 0 2650 
2483 1 -0.00842507 0.0123575 -0.0130427 0.000116 -0.0165283 -0.027419 -0.0195094 2650 
1775 1 -0.0082191 0.0130792 -0.0130012 0.000423 -7.29146e-05 -0.011186 -0.000346901 2650 
4160 1 -0.006657 0.0127617 -0.013271 4.2e-05 0 -0.011753 0 2650 
2109 1 -0.00274207 0.0126722 -0.01283 0.000423 -0.0263796 0.073224 -0.0180073 2650 
3644 1 -0.000733 0.0130667 -0.013392 0.000423 0 -0.011753 0 2650 
3859 1 -0.00231611 0.018504 -0.0132866 0.000423 0.0625424 0.161989 -0.116581 2650 
1900 1 -0.00629902 0.0194291 -0.0133753 0.000423 -0.0944124 0.200719 -0.0873639 2650 
2056 1 -0.0106544 0.0482496 -0.012846 0.000116 -1.13701 -0.484978 0.839543 2650 
4150 1 -0.001319 -0.00258733 -0.012208 0.000116 0 -0.011753 0 2650 
868 1 -0.000201 -0.00296233 -0.012301 0.000116 0 -0.011753 0 2650 
2559 1 -9.20012e-05 -0.00233609 -0.0119948 0.000423 -0.0881967 -0.026328 -0.0381443 2650 
545 1 -0.002328 -0.00113633 -0.012432 4.2e-05 0 -0.011753 0 2650 
2819 1 -0.007468 -0.000602329 -0.012046 0.000116 0 -0.011753 0 2650 
2468 1 -0.003167 -0.000763329 -0.012131 0.000423 0 -0.011753 0 2650 
1763 1 -0.001143 -0.000475329 -0.012442 0.000656 0 -0.011753 0 2650 
950 1 -0.010031 0.000129671 -0.011866 0.000116 0 -0.011753 0 2650 
3637 1 -0.002026 0.000703671 -0.012108 0.000423 0 -0.011753 0 2650 
1422 1 -0.003881 0.00137067 -0.012349 4.2e-05 0 -0.011753 0 2650 
623 1 -0.005429 0.00187767 -0.012246 0.000116 0 -0.011753 0 2650 
1799 1 -0.003237 0.00218567 -0.012061 0.000423 0 -0.011753 0 2650 
3956 1 -0.008956 0.00295667 -0.012273 0.000656 0 -0.011753 0 2650 
3389 1 -0.010415 0.00363667 -0.012026 0.000116 0 -0.011753 0 2650 
1059 1 -0.006874 0.00395668 -0.0124828 0.000116 -0.00683586 -0.0187509 0.0600761 2650 
411 1 -0.0094991 0.00534537 -0.0120803 0.000116 -0.00787832 -0.00657823 -8.20909e-05 2650 
1657 1 -0.00890568 0.0048504 -0.0120286 0.000656 -0.0116375 -0.0115716 0.0121112 2650 
2253 1 -0.000738473 0.00487239 -0.0121526 0.000423 0.106845 -0.0142515 0.0171501 2650 
3826 1 -0.009208 0.00553167 -0.012552 0.000116 0 -0.011753 0 2650 
3316 1 -0.008979 0.00628467 -0.012376 0.000423 0 -0.011753 0 2650 
1261 1 -0.007462 0.00618867 -0.012403 0.000423 0 -0.011753 0 2650 
3362 1 -0.002672 0.00629767 -0.012199 0.000116 0 -0.011753 0 2650 
222 1 -0.00137383 0.00579873 -0.0123151 0.000656 -0.00693584 -0.0507115 -0.0323512 2650 
3446 1 -0.002592 0.00729167 -0.012627 0.000423 0 -0.011753 0 2650 
3030 1 -0.001189 0.00779467 -0.012596 0.000116 0 -0.011753 0 2650 
191 1 -0.011348 0.00911567 -0.012254 0.000116 0 -0.011753 0 2650 
1495 1 -0.004483 0.00926267 -0.012591 0.000116 0 -0.011753 0 2650 
3847 1 -0.00973808 0.00971776 -0.0124057 0.000656 6.67707e-05 -0.0116743 2.1441e-05 2650 
3173 1 -0.004958 0.00992367 -0.012321 4.2e-05 0 -0.011753 0 2650 
2630 1 -0.001036 0.0101317 -0.012074 4.2e-05 0 -0.011753 0 2650 
4002 1 -0.000443 0.00995567 -0.01223 0.000116 0 -0.011753 0 2650 
1250 1 -0.007399 0.0104417 -0.012448 0.000423 0 -0.011753 0 2650 
65 1 -0.009488 0.0113367 -0.011959 0.000116 0 -0.011753 0 2650 
4314 1 -0.00608665 0.0116697 -0.0124734 0.000423 -0.081014 -0.0186136 0.0169729 2650 
1423 1 -0.00145 0.0116117 -0.012526 4.2e-05 0 -0.011753 0 2650 
1578 1 -0.00969674 0.012664 -0.0121042 0.000423 -0.0613912 -0.00297521 -0.0243633 2650 
2205 1 -0.00485877 0.0130369 -0.012246 0.000656 -0.00242931 0.00374128 0.00608177 2650 
3784 1 -0.0111259 0.0149606 -0.0120157 0.000116 -0.0748727 0.0872127 -0.0809338 2650 
1026 1 -0.00662925 0.0327596 -0.0120134 0.000423 0.0636188 0.283269 0.255551 2650 
3831 1 -0.0679257 -0.0363116 -0.0118874 4.2e-05 0.81 -0.474907 -4.62841 2650 
4307 1 -0.0675858 -0.00720932 -0.0116238 0.000423 -0.540973 -0.180899 3.14546 2650 
2066 1 -0.0647868 -0.00553164 -0.0111762 0.000116 -0.599649 -0.181315 2.94608 2650 
3679 1 -0.012092 -0.00242533 -0.011604 0.000116 0 -0.011753 0 2650 
3261 1 -0.0107074 -0.00301793 -0.0116855 0.000116 -0.0103871 -0.0646193 0.0251386 2650 
2072 1 -0.009308 -0.00256333 -0.011721 0.000116 0 -0.011753 0 2650 
2544 1 -0.0018152 -0.00270429 -0.0115493 0.000423 -0.120839 -0.0237096 -0.0167299 2650 
1924 1 -0.0103281 -0.00224245 -0.0115771 0.000423 0.000254196 -0.0523207 0.0386036 2650 
1022 1 -0.002093 -0.00159733 -0.011454 0.000423 0 -0.011753 0 2650 
2166 1 -0.009005 -0.00105733 -0.011549 0.000116 0 -0.011753 0 2650 
3505 1 -0.006952 -0.00146733 -0.011235 4.2e-05 0 -0.011753 0 2650 
3191 1 -0.00574312 -0.000998761 -0.0114739 0.000656 -0.0419897 0.0348006 0.00745458 2650 
3960 1 -0.00865094 -0.000495129 -0.0111264 0.000423 -0.00140487 -0.0313858 -0.020846 2650 
440 1 -0.00061 -0.000165329 -0.011485 4.2e-05 0 -0.011753 0 2650 
388 1 -0.00790292 0.000209549 -0.0113638 0.000116 0.0359769 -0.0242756 -0.0473873 2650 
2827 1 -0.00209331 0.000118417 -0.0113282 0.000116 -0.060084 0.0149229 -0.0942624 2650 
2219 1 -0.00865268 0.00109093 -0.011468 0.000423 -0.00419955 0.0484068 -0.096263 2650 
3643 1 -0.00521027 0.000812535 -0.0116202 0.000423 -0.0276464 -0.00536394 0.0154079 2650 
4215 1 -0.011184 0.00194367 -0.011524 0.000423 0 -0.011753 0 2650 
2579 1 -0.008716 0.00195367 -0.011261 0.000423 0 -0.011753 0 2650 
1452 1 -0.00120486 0.00174117 -0.0111357 0.000423 0.00554637 -0.012591 0.0031522 2650 
3535 1 -9.9e-05 0.00224667 -0.011488 0.000423 0 -0.011753 0 2650 
2279 1 -0.011345 0.00250667 -0.01145 0.000116 0 -0.011753 0 2650 
3411 1 -0.00987237 0.00286176 -0.0111821 0.000656 0.0131942 0.0130309 0.0293002 2650 
3894 1 -0.005583 0.00300567 -0.011098 0.000116 0 -0.011753 0 2650 
3201 1 -0.00320537 0.00286402 -0.0112354 0.000423 -0.0605399 -0.0413426 -0.023818 2650 
1063 1 -0.009531 0.00356067 -0.011683 0.000116 0 -0.011753 0 2650 
3383 1 -0.011681 0.00455567 -0.011229 0.000116 0 -0.011753 0 2650 
1589 1 -0.0106241 0.00489449 -0.0111181 0.000423 -0.0647442 0.0335493 0.0762813 2650 
2294 1 -0.004894 0.00524167 -0.011565 0.000116 0 -0.011753 0 2650 
3542 1 -0.00378113 0.00479277 -0.0112654 0.000423 0.00241856 -0.00915467 -0.000529042 2650 
708 1 -0.00252 0.00543767 -0.011391 0.000423 0 -0.011753 0 2650 
1822 1 -0.008034 0.00629467 -0.011166 0.000116 0 -0.011753 0 2650 
878 1 -0.003908 0.00572467 -0.011202 4.2e-05 0 -0.011753 0 2650 
1215 1 -0.00996435 0.00672393 -0.0113602 0.000656 -0.0151247 -0.0120252 0.00241313 2650 
1584 1 -0.00399177 0.00635845 -0.0115949 0.000423 0.0377863 -0.0108548 -0.0614448 2650 
1758 1 -0.00201 0.00655567 -0.01144 4.2e-05 0 -0.011753 0 2650 
4027 1 -0.003218 0.00768667 -0.011075 0.000116 0 -0.011753 0 2650 
2409 1 -0.002586 0.00762567 -0.011527 4.2e-05 0 -0.011753 0 2650 
2913 1 -0.00410337 0.00830541 -0.0115966 0.000116 -0.028239 -0.0119827 -0.0130286 2650 
2798 1 -0.008755 0.00872567 -0.01131 0.000423 0 -0.011753 0 2650 
2777 1 -0.00612858 0.00935763 -0.0116703 0.000423 -0.0211573 0.049566 0.0339685 2650 
1617 1 -0.00424 0.00961467 -0.011492 0.000116 0 -0.011753 0 2650 
3684 1 -0.00480387 0.0108255 -0.0113325 0.000116 0.00413104 -0.0230128 -0.00941473 2650 
233 1 -0.00495603 0.0113065 -0.0110941 0.000423 0.00253467 -0.0140185 -0.0192435 2650 
1663 1 -0.00973983 0.0119618 -0.0114641 0.000423 -0.00585048 -0.0195656 0.00569326 2650 
3145 1 -0.006381 0.0120777 -0.011273 0.000116 0 -0.011753 0 2650 
2111 1 -0.00985141 0.013147 -0.0111354 0.000423 -0.0245379 0.00505675 0.0232195 2650 
1143 1 -0.00166898 0.0131885 -0.0118418 0.000423 0.00744219 0.00969658 -0.00437689 2650 
911 1 -0.00829118 0.0135361 -0.011559 0.000423 -0.0526708 0.0464536 0.0089698 2650 
976 1 -0.005828 0.0134547 -0.011785 0.000116 0 -0.011753 0 2650 
2820 1 -0.007052 -0.00320733 -0.010962 0.000116 0 -0.011753 0 2650 
3265 1 -0.006001 -0.00321933 -0.010684 0.000116 0 -0.011753 0 2650 
3426 1 -0.00100888 -0.00247469 -0.0105804 0.000423 -0.00109119 -0.0119118 0.00171421 2650 
3603 1 -0.004768 -0.00186333 -0.010424 0.000116 0 -0.011753 0 2650 
4373 1 -0.004239 -0.00220133 -0.010869 4.2e-05 0 -0.011753 0 2650 
15 1 -0.001892 -0.00181033 -0.010407 0.000423 0 -0.011753 0 2650 
249 1 -0.0108197 -0.00133388 -0.0104481 0.000423 -0.040423 -0.0376941 0.0629075 2650 
1901 1 -0.0042298 -0.00104043 -0.0110231 0.000423 -0.0220801 -0.0570589 0.0406976 2650 
939 1 -0.00320863 -0.00112329 -0.0104049 0.000116 -0.0723691 -0.0418117 0.00206409 2650 
450 1 -0.00679443 -0.000196005 -0.0108367 0.000656 0.0173824 0.0194182 -0.108349 2650 
3093 1 -0.00289176 -0.000562097 -0.0107911 0.000423 -0.000507804 -0.0100552 -0.00167569 2650 
2130 1 -0.000316 -0.000746329 -0.010491 0.000423 0 -0.011753 0 2650 
1193 1 -4.3e-05 -0.000180329 -0.010628 0.000116 0 -0.011753 0 2650 
2022 1 -0.00575899 0.000130103 -0.0110268 0.000423 -0.025362 0.0209777 0.00742457 2650 
2542 1 -0.005905 0.000622671 -0.010347 0.000423 0 -0.011753 0 2650 
3673 1 -0.00272 0.000283671 -0.010833 0.000423 0 -0.011753 0 2650 
1774 1 -0.00167148 0.000134543 -0.0109195 0.000423 0.00799352 0.0759136 -0.110118 2650 
3284 1 -0.001323 0.000308671 -0.010635 4.2e-05 0 -0.011753 0 2650 
3530 1 -0.000573 0.000778671 -0.010526 0.000423 0 -0.011753 0 2650 
1233 1 -0.012882 0.00193767 -0.010287 0.000423 0 -0.011753 0 2650 
497 1 -0.00574 0.00293167 -0.010398 0.000116 0 -0.011753 0 2650 
124 1 -0.005032 0.00283667 -0.01051 0.000423 0 -0.011753 0 2650 
1192 1 -0.004051 0.00315567 -0.010435 0.000116 0 -0.011753 0 2650 
3223 1 -0.0107814 0.00408655 -0.0106355 0.000423 -0.0120555 0.0292219 0.0276155 2650 
2912 1 -0.006578 0.00509867 -0.010859 0.000116 0 -0.011753 0 2650 
3787 1 -0.006362 0.00553467 -0.010668 0.000116 0 -0.011753 0 2650 
760 1 -0.006943 0.00587167 -0.010573 4.2e-05 0 -0.011753 0 2650 
861 1 -0.006339 0.00604567 -0.010358 0.000116 0 -0.011753 0 2650 
2326 1 -0.0116717 0.00693434 -0.0103541 0.000423 0.00654137 0.0113769 0.0231902 2650 
2500 1 -0.010648 0.00742067 -0.010771 0.000116 0 -0.011753 0 2650 
4166 1 -0.00422466 0.00751509 -0.0105516 0.000656 -0.000473877 -0.0124048 -0.000834416 2650 
2948 1 -0.002008 0.00723767 -0.010384 0.000116 0 -0.011753 0 2650 
2789 1 -0.00123607 0.00759695 -0.0105042 0.000423 0.0540452 -0.0229939 -0.0675585 2650 
4066 1 -0.00648182 0.00853104 -0.0107987 0.000656 -0.00806035 0.00608947 0.031678 2650 
3727 1 -0.004412 0.00817567 -0.010287 4.2e-05 0 -0.011753 0 2650 
3456 1 -0.00348689 0.00829959 -0.0108214 0.000423 -0.000997028 -0.0111859 -0.00366568 2650 
1935 1 -0.00549254 0.00879064 -0.0106687 0.000116 -0.0496311 0.00727001 0.00060962 2650 
1010 1 -0.012568 0.0101113 -0.0106532 0.000423 -0.0276756 0.0474528 0.0676309 2650 
2097 1 -0.00889 0.00998967 -0.010395 0.000656 0 -0.011753 0 2650 
3132 1 -0.007716 0.00949667 -0.01033 0.000116 0 -0.011753 0 2650 
89 1 -0.003936 0.0100417 -0.010466 0.000116 0 -0.011753 0 2650 
2759 1 -0.011495 0.0109897 -0.010915 0.000656 0 -0.011753 0 2650 
1376 1 -0.009927 0.0107357 -0.010971 0.000116 0 -0.011753 0 2650 
2260 1 -0.008542 0.0117077 -0.010892 0.000116 0 -0.011753 0 2650 
2261 1 -0.007381 0.0110867 -0.010514 0.000116 0 -0.011753 0 2650 
4179 1 -0.00528477 0.0113956 -0.0102676 0.000423 -0.019419 -0.0184876 -0.0181928 2650 
4167 1 -0.003538 0.0114297 -0.010916 0.000656 0 -0.011753 0 2650 
499 1 -0.011613 0.0124577 -0.010379 0.000116 0 -0.011753 0 2650 
1754 1 -0.008854 0.0125637 -0.010611 4.2e-05 0 -0.011753 0 2650 
1802 1 -0.0045279 0.0122795 -0.0105318 0.000423 0.00588614 -0.0012339 -0.0133873 2650 
1913 1 -0.00826843 0.0126541 -0.0108311 0.000423 -0.0084077 -0.0163635 0.0130107 2650 
3595 1 -0.007357 0.0132667 -0.010628 0.000116 0 -0.011753 0 2650 
3767 1 -0.006013 0.0131827 -0.010843 0.000423 0 -0.011753 0 2650 
3899 1 -0.00426752 0.0128129 -0.0105025 0.000116 0.00741193 0.00259205 -0.00468292 2650 
963 1 -0.000669 0.0132457 -0.010387 0.000116 0 -0.011753 0 2650 
3453 1 -0.0072321 0.0250188 -0.0106159 0.000423 -0.0728497 0.274407 -0.190192 2650 
3294 1 -0.00777849 0.0412205 -0.0108278 0.000656 -0.0563035 0.49326 0.113749 2650 
3945 1 -0.0682259 -0.0129345 -0.0100218 4.2e-05 -0.465133 -0.248922 3.1665 2650 
3933 1 -0.006596 -0.00250033 -0.009623 0.000116 0 -0.011753 0 2650 
4285 1 -0.0118861 -0.00175384 -0.00950197 0.000423 0.0433804 0.0448702 0.0781412 2650 
2848 1 -0.0106634 -0.00140354 -0.00982323 4.2e-05 -0.0188445 -0.0333099 0.0794967 2650 
417 1 -0.004944 -0.00113433 -0.009884 0.000116 0 -0.011753 0 2650 