ITEM: TIMESTEP
6737952
ITEM: NUMBER OF ATOMS
4344
ITEM: BOX BOUNDS ff ff ff
-0.15 0.15
-0.15 0.06
-0.15 0.15
ITEM: ATOMS id type x y z radius vx vy vz density 
1320 1 -0.00276698 -0.0457018 -0.0689025 4.2e-05 19.9777 0.0478044 -0.802266 2650 
259 1 -0.00204571 -0.058078 -0.0685475 0.000423 -1.60983 -0.327431 0.0480432 2650 
287 1 -0.00638412 -0.0505828 -0.0683985 0.000116 8.65763 4.63188 -1.07697 2650 
814 1 -0.00495954 -0.0481122 -0.0683985 0.000423 -2.41993 0.0539825 0.175468 2650 
3831 1 -0.0127515 -0.0569634 -0.0677688 4.2e-05 8.50396 0.505016 -1.60012 2650 
897 1 -0.011196 -0.0530889 -0.067658 0.000423 -1.72669 0.276481 0.285703 2650 
4373 1 -0.016788 -0.0563344 -0.0668833 4.2e-05 -2.91536 0.47988 0.731768 2650 
1326 1 -0.0148224 -0.0512195 -0.0667196 0.000656 -2.58621 -0.188019 0.574552 2650 
107 1 -0.0170159 -0.0482829 -0.0657074 4.2e-05 -4.18034 2.06672 -1.28297 2650 
649 1 -0.0274111 -0.0626615 -0.0631451 0.000116 6.0262 -0.0303094 -2.74174 2650 
1587 1 -0.028207 -0.059 -0.0625085 0.000423 -0.0437977 -0.845429 0.0197637 2650 
2 1 -0.0279956 -0.0528725 -0.0623494 0.000656 -2.52581 -0.155627 1.13412 2650 
1231 1 -0.0320913 -0.0453457 -0.0606061 0.000423 -1.10277 -0.00179445 0.583924 2650 
2599 1 -0.0349945 -0.0611979 -0.059333 0.000116 5.12478 0.142398 -3.02258 2650 
868 1 -0.0350245 -0.0538793 -0.0593153 0.000116 2.23517 0.352223 -1.31982 2650 
432 1 -0.034033 -0.0463752 -0.0599747 4.2e-05 -0.913105 0.370108 0.518146 2650 
3005 1 -0.0384875 -0.0516419 -0.0567596 0.000423 -1.15796 -0.762117 0.785191 2650 
3918 1 -0.0442788 -0.0528775 -0.0527675 0.000116 0.181781 -0.977757 -0.152539 2650 
1805 1 -0.0448714 -0.053172 -0.0518604 0.000423 -1.35307 0.0973582 1.17072 2650 
19 1 -0.0490881 -0.0577272 -0.0478884 0.000423 0.663899 -0.0322576 -0.680531 2650 
3143 1 -0.0503025 -0.0487781 -0.0470605 0.000116 7.22451 1.08444 -7.72221 2650 
3547 1 -0.0501703 -0.0472257 -0.0467535 0.000423 -0.625358 -1.18187 0.671209 2650 
1670 1 -0.0497158 -0.04662 -0.0472366 0.000423 -1.12806 0.474358 1.18785 2650 
3069 1 -0.051395 -0.0538008 -0.0459756 4.2e-05 3.47395 -0.0405499 -3.88344 2650 
3974 1 -0.0516642 -0.0600467 -0.0450973 0.000423 0.480358 0.129426 -0.550306 2650 
3088 1 -0.0558086 -0.0593255 -0.0398541 0.000423 -1.6593 -0.166822 2.32356 2650 
3613 1 -0.0561685 -0.054364 -0.0400039 4.2e-05 -0.126201 -0.935657 0.177196 2650 
3348 1 -0.0574343 -0.0604953 -0.0380305 0.000116 2.27133 -0.169775 -3.4302 2650 
3580 1 -0.0613542 -0.0614237 -0.018988 0.000116 2.60942 0.513352 -5.33313 2650 
833 1 -0.0665399 -0.0550819 -0.017818 0.000116 3.14218 0.769444 -11.7342 2650 
935 1 -0.0663613 -0.0512442 -0.0172955 0.000423 -0.410478 -0.526772 1.57497 2650 
2457 1 -0.0677392 -0.0453333 -0.0106938 0.000423 -0.446423 0.386963 2.82784 2650 
1912 1 -0.0680486 -0.0479675 -0.00850483 0.000423 -0.217443 -0.144249 1.7398 2650 
3691 1 -0.0688837 -0.0505933 -0.000245092 0.000116 -0.00666088 1.92478 1.87222 2650 
575 1 -0.0683745 -0.062377 0.00528575 0.000423 -0.700816 -0.00207916 -9.06549 2650 
3308 1 -0.067741 -0.0566625 0.010682 0.000423 0.399708 0.366896 2.53479 2650 
3785 1 -0.0672218 -0.0521432 0.0150415 0.000116 0.234039 -0.249997 1.04594 2650 
3933 1 -0.0656994 -0.0514143 0.0207029 0.000116 0.378896 -2.86496 1.2024 2650 
1417 1 -0.065084 -0.056705 0.022563 0.000116 -0.0508632 -0.745112 -0.146718 2650 
1721 1 -0.0651719 -0.0537161 0.0223081 0.000116 -0.278114 0.636555 -0.812495 2650 
2515 1 -0.0617845 -0.0531923 0.0304581 0.000116 -2.43749 0.568011 -4.94447 2650 
2087 1 -0.0605386 -0.0505763 0.0330196 4.2e-05 -4.41014 -0.99808 -8.08562 2650 
1712 1 -0.058594 -0.048415 0.0362185 0.000116 -5.3608 1.64415 -8.67264 2650 
3834 1 -0.0569959 -0.0621987 0.038816 4.2e-05 -3.18925 0.1426 -4.68297 2650 
167 1 -0.0561866 -0.0570046 0.0398508 0.000116 -0.35089 0.353704 -0.494728 2650 
2148 1 -0.0538768 -0.0606054 0.0418338 0.000116 -4.97992 4.56685 -3.5349 2650 
2803 1 -0.0488334 -0.0609185 0.0485831 0.000116 -0.318744 -1.30947 -0.320386 2650 
2920 1 -0.0490098 -0.0567897 0.0484052 0.000116 0.764964 -0.693336 0.77452 2650 
1312 1 -0.0464052 -0.0610805 0.0510075 4.2e-05 -3.00662 -0.113006 -2.73534 2650 
1081 1 -0.036054 -0.0610692 0.0515332 0.000116 -9.37295 0.421398 -5.52786 2650 
4036 1 -0.0460032 -0.0583881 0.0512711 0.000116 -1.83636 -0.778662 -1.64768 2650 
4177 1 -0.0399033 -0.0454955 0.0557734 0.000423 1.44294 0.086532 1.03236 2650 
3038 1 -0.0391877 -0.0602093 0.0566511 0.000116 -0.756764 -0.0201033 -0.523483 2650 
835 1 -0.031586 -0.0485757 0.0612156 0.000116 -5.84407 1.53301 -3.01542 2650 
992 1 -0.0221739 -0.0461581 0.0646492 0.000656 1.51806 -0.0486548 0.520678 2650 
3034 1 -0.0151343 -0.0625827 0.0665941 0.000116 -2.69714 0.769802 -3.28463 2650 
3426 1 -0.0151517 -0.0574427 0.0668833 0.000423 2.67101 -0.22803 0.605087 2650 
980 1 -0.0183995 -0.0523351 0.066458 4.2e-05 3.18988 0.398863 0.883144 2650 
2361 1 -0.0140766 -0.0519292 0.0671178 0.000423 1.84135 -0.480954 0.386188 2650 
3134 1 -0.00973447 -0.0518736 0.0681928 0.000116 0.00372786 -0.570331 0.000532149 2650 
1958 1 -0.000912393 -0.0350515 -0.0688781 0.000116 -2.6288 -0.000791034 0.0348224 2650 
1290 1 -0.00528634 -0.014379 -0.068681 0.000116 -3.29859 -0.212312 0.253891 2650 
3229 1 -0.00331857 -0.0253916 -0.0684977 0.000423 -2.77292 0.312185 0.134342 2650 
3329 1 -0.00459745 -0.0216222 -0.0684238 0.000423 -2.11474 0.0132328 0.142091 2650 
3863 1 -0.00897595 -0.0197581 -0.0679882 0.000423 -2.94376 -0.19794 0.388792 2650 
2396 1 -0.00585474 -0.0185215 -0.0686349 0.000116 -3.22985 -0.144093 0.275515 2650 
4309 1 -0.000920189 -0.0164184 -0.0685719 0.000423 -2.1863 0.452538 0.0293386 2650 
3470 1 -0.00992931 -0.0124107 -0.0681647 0.000116 -2.98192 -0.271589 0.434365 2650 
4312 1 -0.000134342 -0.0126243 -0.068578 0.000423 -3.80728 -0.0261769 0.00745834 2650 
4038 1 -0.00991397 -0.0113131 -0.068167 0.000116 -3.00073 -0.180961 0.436415 2650 
1214 1 -0.00409653 -0.00967784 -0.0682234 0.000656 -3.21827 0.217742 0.193243 2650 
1832 1 -0.0113477 -0.00799752 -0.067943 0.000116 -1.06135 0.910582 0.177265 2650 
2895 1 -0.00397295 -0.00415571 -0.0684629 0.000423 -3.33431 0.703716 0.193492 2650 
3525 1 -0.0034308 -0.00327689 -0.0684922 0.000423 -3.05311 0.380341 0.152931 2650 
4016 1 -0.014225 -0.0398324 -0.0673993 0.000116 -2.43581 0.295847 0.51409 2650 
121 1 -0.0079272 -0.0219687 -0.0678849 0.000656 -2.47749 0.154074 0.289306 2650 
2480 1 -0.0124195 -0.0208425 -0.0676229 0.000116 1.31466 -0.144668 -0.456858 2650 
1323 1 -0.00849118 -0.0207609 -0.0678024 0.000656 -2.13729 -0.0118012 0.416696 2650 
3261 1 -0.0138474 -0.0194894 -0.0674779 0.000116 -2.859 -0.050788 0.586708 2650 
1177 1 -0.0148369 -0.00638408 -0.0672673 0.000116 -2.10409 -0.00639863 0.46409 2650 
3260 1 -0.0139669 -0.00376371 -0.0674533 0.000116 -1.77861 0.439222 0.36828 2650 
1544 1 -0.0154011 -0.0178685 -0.0665883 0.000656 -1.81568 0.100216 0.419945 2650 
334 1 -0.01458 -0.0156464 -0.066773 0.000656 -2.63787 -0.381824 0.575983 2650 
2967 1 -0.014662 -0.0127321 -0.066755 0.000656 -2.18032 0.490848 0.478884 2650 
1841 1 -0.0164101 -0.0123285 -0.0669009 0.000116 -2.94089 0.200514 0.72137 2650 
3055 1 -0.0165966 -0.00809877 -0.0668549 0.000116 -2.76725 -0.0578104 0.686966 2650 
3198 1 -0.0197736 -0.0438609 -0.0656655 0.000423 -1.28363 -0.0129968 0.386535 2650 
3387 1 -0.0189332 -0.0400821 -0.0662311 0.000116 -1.08549 -0.40175 0.310305 2650 
2820 1 -0.0192595 -0.0105494 -0.0661369 0.000116 -2.44426 0.626191 0.711784 2650 
3642 1 -0.0223775 -0.0342759 -0.0648244 0.000423 -2.18158 -0.0301062 0.753084 2650 
1058 1 -0.0226152 -0.033546 -0.0650659 0.000116 -1.80123 -0.326585 0.626061 2650 
2487 1 -0.0231251 -0.0255172 -0.0648865 0.000116 -2.00655 0.264103 0.71512 2650 
1555 1 -0.0223798 -0.016786 -0.0648236 0.000423 -2.19313 0.396241 0.757162 2650 
827 1 -0.0230794 -0.0133818 -0.0649027 0.000116 -1.58404 0.358027 0.563284 2650 
1964 1 -0.0218245 -0.00234932 -0.0653354 0.000116 -2.27156 0.53617 0.758789 2650 
4132 1 -0.0242779 -0.0390143 -0.064464 0.000116 -1.75558 -0.299539 0.66117 2650 
2074 1 -0.0184609 -0.0196668 -0.0641621 0.000116 -8.03105 1.32643 0.896137 2650 
4082 1 -0.0248346 -0.00674196 -0.0639234 0.000423 -2.98874 -0.154028 1.16114 2650 
3090 1 -0.0265995 -0.0409161 -0.0632093 0.000423 -2.67405 -0.4589 1.12528 2650 
2806 1 -0.0272756 -0.0359708 -0.063254 0.000116 -2.45847 -0.31316 1.06011 2650 
2251 1 -0.0265375 -0.0353611 -0.0632354 0.000423 -2.41639 -0.190557 1.01407 2650 
4128 1 -0.02588 -0.0190838 -0.0638377 0.000116 -2.96817 0.0477613 1.2033 2650 
486 1 -0.0283311 -0.0438847 -0.0624523 0.000423 -1.04896 -0.100262 0.475854 2650 
1016 1 -0.0272275 -0.0318681 -0.0629414 0.000423 -2.41337 0.0383579 1.04399 2650 
3688 1 -0.0305856 -0.0357516 -0.0617215 0.000116 -1.93454 -0.322451 0.958645 2650 
27 1 -0.0291138 -0.0341962 -0.0620914 0.000423 -2.39642 0.0197453 1.12365 2650 
1877 1 -0.0286425 -0.031836 -0.0620549 0.000656 -2.28018 0.0587741 1.05245 2650 
2169 1 -0.0298717 -0.0289754 -0.0620702 0.000116 -0.984665 -0.532446 0.473877 2650 
106 1 -0.0309372 -0.0178106 -0.0616287 4.2e-05 -2.86011 -0.214156 1.43576 2650 
392 1 -0.0307842 -0.0170845 -0.0616227 0.000116 -2.87419 -0.210948 1.43583 2650 
2436 1 -0.0304345 -0.0154082 -0.0614548 0.000423 -2.10692 0.378807 1.04342 2650 
791 1 -0.0310506 -0.0132284 -0.0611458 0.000423 -2.59291 -0.456379 1.31799 2650 
3313 1 -0.031345 -0.0123891 -0.0609954 0.000423 -1.5712 0.515277 0.806035 2650 
2800 1 -0.0305939 -0.0108409 -0.0613756 0.000423 -2.23154 0.559449 1.11236 2650 
1956 1 -0.0312795 -0.000155438 -0.0611249 0.000116 0.147767 0.45969 1.85631 2650 
3366 1 -0.0324703 -0.0412347 -0.0604931 0.000116 1.78271 2.92864 -0.437053 2650 
2269 1 -0.0328779 -0.00727745 -0.0605315 0.000116 -2.64093 -0.176845 1.43443 2650 
4139 1 -0.0349634 -0.033395 -0.0593514 0.000116 2.48688 1.0359 -1.465 2650 
2670 1 -0.0342294 -0.0195859 -0.0594247 0.000423 -1.79792 0.261882 1.03563 2650 
588 1 -0.0343415 -0.0100742 -0.05936 0.000423 -2.45242 0.412218 1.4188 2650 
1471 1 -0.0351787 -0.0411386 -0.0588425 0.000423 -2.45532 -0.261043 1.09345 2650 
122 1 -0.0348065 -0.0152751 -0.0588193 0.000656 -2.26274 0.375781 1.33898 2650 
2000 1 -0.035428 -0.00335386 -0.0587181 0.000423 -1.88889 -0.380271 1.13967 2650 
2788 1 -0.0366141 -0.000703551 -0.0579859 0.000423 -2.38116 -0.0105547 1.50354 2650 
1500 1 -0.0619273 -0.0303902 -0.0301668 0.000116 -0.57733 -0.598771 1.18516 2650 
2816 1 -0.0384689 -0.00820571 -0.0571416 0.000116 -2.30488 0.772587 1.55169 2650 
2938 1 -0.0330575 -0.00601578 -0.057167 0.000116 -3.26978 -0.143938 0.441833 2650 
4331 1 -0.0390301 -0.0353359 -0.0567598 0.000116 2.32227 0.710414 -1.59688 2650 
1030 1 -0.0337741 -0.0222188 -0.0565029 0.000423 -3.13896 -1.13427 0.58222 2650 
3054 1 -0.0389649 -0.00154951 -0.0568046 0.000116 -1.65582 -0.135512 1.13581 2650 
2055 1 -0.0385466 -0.0205648 -0.0537739 0.000116 3.24546 0.0847594 -2.42832 2650 
2576 1 -0.0418115 -0.0070769 -0.0543577 0.000423 -2.45865 0.00833601 1.89118 2650 
2210 1 -0.04306 -0.0447133 -0.0530758 0.000656 -2.31294 -0.675151 1.87647 2650 
2051 1 -0.0447763 -0.000918205 -0.0520017 0.000116 1.7172 -0.220621 -6.06172 2650 
1655 1 -0.046816 -0.0419136 -0.0497942 0.000656 0.740205 0.00701111 -0.695933 2650 
2527 1 -0.0470289 -0.0302789 -0.050433 4.2e-05 -2.8457 -1.90623 2.65362 2650 
3168 1 -0.0474344 -0.0167101 -0.04995 0.000116 -1.10747 1.38499 1.05169 2650 
2641 1 -0.0463779 -0.0154554 -0.0502026 0.000656 -1.85382 0.31625 1.71258 2650 
1960 1 -0.0472555 -0.00534917 -0.0501193 0.000116 -0.282975 -0.52004 0.266805 2650 
3242 1 -0.0482638 -0.00157439 -0.049149 0.000116 -1.8748 0.0389445 1.84104 2650 
2738 1 -0.0493282 -0.0141793 -0.0481864 4.2e-05 1.54164 3.6063 -1.57817 2650 
862 1 -0.0506789 -0.0175354 -0.0466549 0.000116 -2.10074 -0.110283 2.28193 2650 
2060 1 -0.0502575 -0.00612906 -0.0471084 0.000116 0.398473 -0.580718 -0.425111 2650 
330 1 -0.0465276 -0.00430445 -0.0468231 4.2e-05 -2.68671 -0.0892743 1.46024 2650 
1560 1 -0.0514277 -0.0259363 -0.0453667 0.000423 -1.40246 0.273442 1.58983 2650 
661 1 -0.0513733 -0.0223976 -0.0450776 0.000656 -1.91103 0.328062 2.17793 2650 
849 1 -0.0518101 -0.0119488 -0.0453953 0.000116 -2.10229 -0.203776 2.39936 2650 
2538 1 -0.0510549 -0.0108635 -0.045438 0.000656 -2.12894 -0.220916 2.3921 2650 
2167 1 -0.0527729 -0.0436849 -0.0442723 0.000116 -0.0217766 -0.395596 0.0259578 2650 
51 1 -0.0523389 -0.0272885 -0.0443124 0.000423 -0.390876 -0.330352 0.461676 2650 
3652 1 -0.0520386 -0.0259475 -0.0446647 0.000423 -1.39056 0.306935 1.62013 2650 
1174 1 -0.0526458 -0.0172559 -0.0444234 0.000116 -2.06394 -0.129033 2.44596 2650 
1784 1 -0.0530604 -0.0376008 -0.0434459 0.000423 -1.33446 -0.338078 1.62976 2650 
115 1 -0.0527715 -0.0350568 -0.0434324 0.000656 -1.59632 0.243835 1.93957 2650 
2593 1 -0.0532478 -0.0305428 -0.0437001 0.000116 -1.44748 -0.860396 1.76373 2650 
3945 1 -0.0384185 -0.0287815 -0.0438075 4.2e-05 1.72154 -1.43438 -7.4795 2650 
1116 1 -0.0533699 -0.0248052 -0.0430651 0.000423 -1.22603 0.561737 1.5194 2650 
1798 1 -0.0538294 -0.034535 -0.0424894 0.000423 -1.64454 0.186846 2.08346 2650 
4307 1 -0.054244 -0.0320299 -0.0419588 0.000423 -1.55116 0.0580695 2.00532 2650 
3650 1 -0.0538397 -0.0228665 -0.0424763 0.000423 -1.84403 0.295931 2.33736 2650 
2371 1 -0.0546593 -0.00998613 -0.0419212 0.000116 -1.96014 0.00392298 2.55574 2650 
2545 1 -0.0544428 -0.0232722 -0.0417006 0.000423 -1.76211 0.483247 2.30054 2650 
1130 1 -0.0546846 -0.0181793 -0.041383 0.000423 -1.36713 0.129495 1.80832 2650 
3385 1 -0.0544169 -0.0202558 -0.0403976 0.000116 0.571803 0.38742 0.261728 2650 
671 1 -0.0550778 -0.0185935 -0.0404678 0.000656 -1.33345 0.116439 1.81711 2650 
476 1 -0.0560462 -0.0199818 -0.0395189 0.000423 -0.780985 0.180169 1.15628 2650 
2132 1 -0.0556346 -0.0176466 -0.0400967 0.000423 -1.51526 -0.0805285 2.10243 2650 
1256 1 -0.0564324 -0.0430125 -0.0389658 0.000423 -1.17395 -0.496916 1.70018 2650 
3936 1 -0.0569182 -0.0184651 -0.0389298 4.2e-05 -1.80603 -0.145839 2.64055 2650 
711 1 -0.0528437 -0.00499519 -0.038884 0.000423 -2.63498 -0.112221 1.87356 2650 
358 1 -0.0571824 -0.0248233 -0.0378567 0.000423 -1.35792 -0.0130413 2.05113 2650 
1475 1 -0.0568039 -0.0157744 -0.0384222 0.000423 -1.30969 0.161633 1.93626 2650 
235 1 -0.0576301 -0.0187175 -0.0371716 0.000423 -1.08242 0.381885 1.67817 2650 
1213 1 -0.0578206 -0.0287236 -0.0364416 0.000656 -1.30412 0.0124907 2.0692 2650 
3095 1 -0.0580262 -0.0235327 -0.0365501 0.000423 -1.33766 0.0170775 2.12364 2650 
2663 1 -0.0578757 -0.0214957 -0.036788 0.000423 -1.45286 0.335319 2.28567 2650 
2705 1 -0.0584114 -0.00682973 -0.0365121 0.000116 -1.18165 -0.0661678 1.89038 2650 
3946 1 -0.0587419 -0.00427187 -0.0361193 4.2e-05 -5.34769 0.650857 8.69711 2650 
4142 1 -0.0587841 -0.0328216 -0.035909 0.000116 -1.37987 0.20681 2.25888 2650 
1104 1 -0.0582918 -0.0300978 -0.035683 0.000656 -1.26825 -0.0374144 2.07182 2650 
2123 1 -0.0591619 -0.0241195 -0.0346817 0.000423 -1.25672 0.470726 2.14378 2650 
2042 1 -0.0594669 -0.00942724 -0.0347666 0.000116 -1.62376 -0.190818 2.77737 2650 
1669 1 -0.0595304 -0.0173427 -0.0340453 0.000423 -0.714162 0.347809 1.24876 2650 
670 1 -0.0589385 -0.0153797 -0.0346044 0.000656 -1.54952 0.0490596 2.63915 2650 
3153 1 -0.000441736 -0.00386872 -0.0343379 0.000116 -0.0387303 -0.0885 -4.91346 2650 
2651 1 -0.0597207 -0.0161749 -0.0337104 0.000423 -1.5212 -0.0221149 2.69492 2650 
1393 1 -0.0510908 -0.00520613 -0.0328578 0.000116 -7.71653 -0.186828 -4.95372 2650 
35 1 -0.0618453 -0.0162488 -0.029633 0.000423 -1.04812 -0.0564317 2.18748 2650 
1716 1 -0.0620849 -0.0156735 -0.0298411 0.000116 -1.1006 0.115873 2.28981 2650 
3692 1 -0.0625525 -0.0435455 -0.028848 0.000116 0.226768 0.217926 -0.491711 2650 
1364 1 -0.0622189 -0.0155814 -0.0288404 0.000423 -1.3725 -0.249671 2.96097 2650 
3783 1 -0.0621006 -0.013094 -0.0290942 0.000423 -1.3593 -0.482444 2.90138 2650 
3725 1 -0.0627017 -0.0109239 -0.0287002 4.2e-05 -1.22788 -0.34234 2.68256 2650 
688 1 -0.0624117 -0.00523915 -0.0284206 0.000423 -0.94532 0.0934858 2.07592 2650 
341 1 -0.062209 -0.0283957 -0.0283062 0.000656 -0.974567 -0.086265 2.14182 2650 
3381 1 -0.0628867 -0.0125889 -0.0281121 0.000116 -1.30718 0.193393 2.92416 2650 
416 1 -0.0629263 -0.0109731 -0.0280232 0.000116 -1.32396 0.111559 2.97297 2650 
2465 1 -0.0628436 -0.0277897 -0.0274523 0.000423 -0.943432 0.0855237 2.1597 2650 
4306 1 -0.047838 -0.00782693 -0.0269579 0.000423 -7.18018 -0.382486 -4.032 2650 
3256 1 -0.0635929 -0.00944719 -0.0264758 0.000116 -0.932864 -0.0889315 2.24067 2650 
2386 1 -0.0642098 -0.0126939 -0.0249424 0.000116 -0.196641 0.0283991 0.506218 2650 
2430 1 -0.0641169 -0.0242315 -0.0236691 0.000656 -0.846696 0.0190533 2.2936 2650 
3339 1 -0.0642028 -0.0230415 -0.024103 0.000423 -0.845271 0.0236616 2.25154 2650 
2601 1 -0.0646218 -0.00923834 -0.0238548 0.000116 -0.818884 0.252081 2.21833 2650 
1598 1 -0.064725 -0.00949248 -0.0235733 0.000116 -0.812618 -0.194804 2.2312 2650 
375 1 -0.0646938 -0.0252528 -0.0227523 0.000423 -0.818318 0.0391418 2.3268 2650 
1317 1 -0.0652943 -0.00628764 -0.0221779 4.2e-05 -0.564456 0.424027 1.66183 2650 
1050 1 -0.065048 -0.000912613 -0.0226666 0.000116 -0.0402334 1.67597 0.115461 2650 
1687 1 -0.0650977 -0.0262838 -0.0215694 0.000423 -0.769185 0.203912 2.32144 2650 
1468 1 -0.00750385 -0.00629921 -0.0219739 0.000423 -0.831489 -0.463462 -2.44936 2650 
811 1 -0.0652228 -0.00377683 -0.021188 0.000423 -0.751707 -0.183017 2.31397 2650 
2224 1 -0.0656533 -0.0257535 -0.0198139 0.000423 -0.744042 0.185813 2.46539 2650 
4338 1 -0.0660511 -0.0262356 -0.0195518 0.000116 -0.68028 0.136563 2.29816 2650 
1071 1 -0.0662584 -0.00284446 -0.0188373 0.000116 -0.615439 -0.688332 2.16475 2650 
3815 1 -0.0663397 -0.00128533 -0.0185492 0.000116 -0.582573 -0.282979 2.08352 2650 
1675 1 -0.0660087 -0.000598142 -0.0185957 0.000423 -0.667654 -0.0276371 2.36996 2650 
844 1 -0.0665112 -0.00331505 -0.0179244 0.000116 -0.558729 -0.426027 2.07325 2650 
3534 1 -0.0663851 -0.00498312 -0.0172037 0.000423 -0.70938 -0.00101302 2.73733 2650 
606 1 -0.000183 0.00281868 -0.016592 0.000116 0 -0.011753 0 2650 
188 1 -0.00113198 0.0104255 -0.0167003 0.000116 -0.0148612 0.0228045 0.00418427 2650 
2713 1 -0.000753713 0.0109834 -0.0166332 0.000116 0.00037122 0.035974 0.00535071 2650 
1863 1 -0.0671229 -0.0162658 -0.0158028 4.2e-05 -0.733875 -0.184038 3.11716 2650 
3845 1 -0.0664987 -0.00216034 -0.015784 0.000656 -0.665576 0.258455 2.8041 2650 
15 1 -0.0666918 -0.000686117 -0.0159738 0.000423 -0.677367 0.300804 2.82806 2650 
736 1 -0.00441839 0.000573609 -0.0161491 0.000116 -0.0307431 -0.0170391 0.0144389 2650 
30 1 -0.000385963 0.000591982 -0.0165213 0.000423 -0.0136125 -0.0214967 0.00834717 2650 
1679 1 -0.00368227 0.00287843 -0.0161013 0.000423 -0.00531599 0.0154477 0.00427337 2650 
2013 1 -0.00279942 0.00281159 -0.0160707 0.000423 -0.00154235 0.00221798 0.00156406 2650 
2283 1 -0.00308459 0.00354342 -0.0162359 0.000116 -0.0318858 -0.01081 -0.0228231 2650 
2301 1 -0.004222 0.00459168 -0.016305 4.2e-05 0 -0.011753 0 2650 
3121 1 -0.00235676 0.00510377 -0.0162012 0.000423 0.0292552 0.00121421 5.81941e-05 2650 
978 1 -0.00451271 0.00672285 -0.0161387 0.000116 0.015313 -0.00383775 -0.0151954 2650 
3934 1 -0.001977 0.00758068 -0.016218 0.000116 0 -0.011753 0 2650 
1617 1 -0.00265758 0.0098655 -0.0159833 0.000116 0.0304013 0.00375314 0.0183235 2650 
1620 1 -0.00159859 0.00954432 -0.015814 0.000116 0.0529387 0.0514306 -0.00503745 2650 
2924 1 -0.00176192 0.0121155 -0.0162062 0.000116 -0.059039 0.0353164 0.00422158 2650 
4231 1 -0.000437721 0.0170173 -0.0163538 0.000116 -0.0134934 0.0153003 0.0304581 2650 
1173 1 -0.00401367 0.0434393 -0.0163243 0.000116 -0.137161 0.346597 0.0373246 2650 
1357 1 -0.00072822 0.0551167 -0.0164085 0.000423 0.0707047 -0.134764 -0.00396134 2650 
3409 1 -0.0665385 -0.0225488 -0.0156154 0.000656 -0.602593 0.441381 2.56769 2650 
1207 1 -0.0671656 -0.0027902 -0.0156202 4.2e-05 -0.477396 -0.0271553 2.05276 2650 
509 1 -0.00748992 -0.000105343 -0.015076 0.000116 0.0208826 0.00735409 0.00387183 2650 
545 1 -0.00203517 0.000170001 -0.0150352 4.2e-05 0.0164356 0.0574887 0.091312 2650 
150 1 -0.00482887 0.00206227 -0.0156459 0.000423 -0.0551283 0.0175519 0.0264808 2650 
3239 1 -0.00419342 0.00175068 -0.0153303 0.000116 -0.0248133 -0.00752354 0.0120924 2650 
3637 1 -0.00409077 0.00259898 -0.0154113 0.000423 -0.010908 0.0125472 -0.00602406 2650 
2399 1 -0.002418 0.00303268 -0.015541 0.000116 0 -0.011753 0 2650 
2793 1 -0.0016321 0.00415775 -0.0156649 0.000423 0.0182843 0.0982975 0.0184189 2650 
1388 1 -0.00208212 0.00527303 -0.0154621 0.000116 -0.039288 0.0021603 0.0169103 2650 
2438 1 -0.00563324 0.00686528 -0.0152056 0.000423 -0.00364828 0.010897 0.00465106 2650 
963 1 -0.00656308 0.00712879 -0.0151953 0.000116 -0.0190241 0.000952492 0.0269479 2650 
1219 1 -0.000267774 0.00776054 -0.0154934 0.000656 0.0133734 0.0239605 0.00857101 2650 
3830 1 -0.006879 0.00913268 -0.015411 4.2e-05 0 -0.011753 0 2650 
2969 1 -0.0016466 0.00869467 -0.0150924 0.000656 -0.00770999 0.0181957 -4.77754e-05 2650 
86 1 -0.00234013 0.00917997 -0.0150438 0.000116 -0.0196067 0.0126222 0.000798653 2650 
3177 1 -0.000921242 0.00879497 -0.0155186 4.2e-05 0.00917698 -0.00185525 -0.00666376 2650 
1483 1 -0.000339482 0.00903616 -0.0155035 0.000423 0.000441422 0.00568033 -0.00701639 2650 
1827 1 -0.00734311 0.00968425 -0.0150044 0.000116 0.0104858 0.011057 0.025833 2650 
233 1 -0.00476905 0.00952623 -0.0155129 0.000423 0.000342891 -0.00976437 -0.0328705 2650 
938 1 -0.000948247 0.010107 -0.0154309 0.000116 -0.00972467 -0.0045752 -0.00099221 2650 
371 1 -0.00044381 0.00989591 -0.0154439 0.000423 -0.000525259 0.00952275 -0.00581088 2650 
3644 1 -0.00104989 0.0125987 -0.0157787 0.000423 -0.00432743 0.00711996 -0.0325914 2650 
352 1 -0.00546998 0.0413521 -0.0153024 0.000423 0.0736471 -0.159457 0.0441779 2650 
4245 1 -0.00593258 0.0454233 -0.0153924 0.000116 -0.108278 0.145073 0.0575558 2650 
2817 1 -0.00152399 -0.0029567 -0.0142383 0.000116 0.0100645 -0.056664 0.00630574 2650 
2172 1 -0.00636986 -0.00159958 -0.0144839 0.000116 0.0554355 0.00150652 -0.0523356 2650 
1053 1 -0.007469 -0.000809318 -0.014946 0.000116 0 -0.011753 0 2650 
1022 1 -0.00321686 -0.00121876 -0.0149645 0.000423 0.00547055 0.0207929 0.0819064 2650 
623 1 -0.00652102 0.000325616 -0.0147292 0.000116 -0.0192086 -0.00896372 0.0230222 2650 
1991 1 -0.00578569 0.000461472 -0.0149861 0.000656 -0.0195897 -0.00213105 0.00864983 2650 
2922 1 -0.00685342 0.0014299 -0.0142368 0.000116 -0.00925852 -0.000802711 0.00675368 2650 
676 1 -0.00328656 0.00200927 -0.0149273 0.000423 -0.0247905 0.00447638 0.0282863 2650 
220 1 -0.00357542 0.00278123 -0.0146466 4.2e-05 0.00197382 0.00663681 0.00671825 2650 
3587 1 -0.0064858 0.00349572 -0.0142615 0.000116 -0.0152422 -0.0151231 -0.00566973 2650 
2918 1 -0.00808848 0.00547618 -0.0146026 0.000116 0.0149777 0.0131491 0.0124233 2650 
3365 1 -0.002315 0.00545868 -0.014552 0.000116 0 -0.011753 0 2650 
2313 1 -0.00454215 0.00643079 -0.0148506 0.000656 0.0121795 0.0249345 0.010824 2650 
581 1 -0.00562103 0.00838629 -0.0144595 0.000423 -0.000593495 -0.0101803 -0.00423903 2650 
289 1 -0.00209477 0.00971998 -0.0148282 0.000116 -0.0188061 -0.000940224 -0.0594549 2650 
1228 1 -0.00151078 0.00994657 -0.0149978 0.000423 -0.0026547 0.0243513 0.000515369 2650 
3669 1 -0.000197099 0.0104512 -0.0147637 0.000423 0.00220454 -0.00743356 -0.00383523 2650 
3007 1 -0.00168514 0.011262 -0.014729 0.000423 -0.0135196 -0.00505473 -0.0280609 2650 
478 1 -0.00732812 0.01511 -0.0142893 0.000423 0.0184535 0.00116934 0.020279 2650 
568 1 -0.000824645 0.0176313 -0.0145201 0.000423 0.0646767 0.0324089 0.0265592 2650 
2643 1 -0.00183746 0.0272666 -0.0147804 0.000656 -0.0823633 0.0688822 0.0201377 2650 
468 1 -0.0671688 -0.020878 -0.0138311 0.000423 -0.18431 0.183784 0.893587 2650 
1870 1 -0.0676083 -0.00509976 -0.0135768 4.2e-05 -0.443259 0.0608482 2.20729 2650 
2666 1 -0.00778528 -0.00195678 -0.0136762 0.000423 0.00506312 -0.0128769 -0.0752945 2650 
2827 1 -0.0056539 -0.00182989 -0.0142045 0.000116 -0.0201753 -0.0226203 0.0017234 2650 
269 1 -9.07998e-05 -0.00142584 -0.0138854 0.000423 -0.0067037 -0.0325502 -0.00931701 2650 
2332 1 -0.00463009 -7.8968e-05 -0.0140519 0.000423 -0.0114447 -0.00779769 0.00753018 2650 
222 1 -0.00273154 -0.00060415 -0.0136034 0.000656 -0.0189906 -0.0240038 0.0410277 2650 
2512 1 -0.00899638 0.00380144 -0.0136053 0.000116 0.018779 -0.0192413 0.00230208 2650 
1171 1 -0.00832724 0.00388521 -0.0139076 0.000116 0.0131753 -0.0110464 0.0150896 2650 
1032 1 -0.00749068 0.00366638 -0.0141629 0.000423 0.0299121 -0.00820922 0.0127278 2650 
4165 1 -0.00517397 0.0031703 -0.0135067 0.000656 -6.3943e-05 -0.032131 0.00827285 2650 
2913 1 -0.0081731 0.00612978 -0.0134452 0.000116 -0.0140945 -0.0228944 -0.00540615 2650 
3950 1 -0.00712332 0.0061839 -0.0137928 0.000656 0.000588401 -0.011021 0.0254098 2650 
2322 1 -0.00861188 0.00693195 -0.0135169 0.000656 -0.010444 -0.0114293 0.00249654 2650 
1288 1 -0.002467 0.00676168 -0.014044 0.000116 0 -0.011753 0 2650 
4227 1 -0.000612463 0.00652353 -0.0134583 0.000116 -0.00921828 -0.0161692 0.0154311 2650 
3515 1 -0.00749593 0.00756691 -0.0140212 0.000656 -0.00997791 -0.00948519 0.00142522 2650 
2222 1 -0.00059427 0.00786089 -0.014202 0.000423 -0.00549102 -0.00568171 -0.00117535 2650 
1618 1 -0.00925889 0.00805812 -0.013942 0.000116 -0.0250454 -0.000838232 0.0233532 2650 
4190 1 -0.00859771 0.00860391 -0.0140446 0.000423 -0.007929 0.00210755 0.00547245 2650 
1250 1 -0.00813585 0.0082122 -0.0134346 0.000423 -0.0112808 -0.00783473 0.00280943 2650 
1769 1 -0.00685341 0.00865249 -0.0135975 0.000656 -0.0120334 -0.000961407 -0.0081542 2650 
4257 1 -0.00794787 0.00882211 -0.0139715 0.000116 0.0101268 -0.0416798 0.0036163 2650 
1476 1 -0.00699697 0.00975324 -0.013435 0.000423 -0.00430855 0.00299287 4.96068e-07 2650 
1986 1 -0.00271092 0.0102358 -0.013468 0.000656 0.00762539 0.0149956 0.0116892 2650 
1409 1 -0.00044 0.0105417 -0.013868 0.000116 0 -0.011753 0 2650 
959 1 -0.00955069 0.0148036 -0.0135393 0.000116 -0.0124197 0.0522228 0.0447896 2650 
142 1 -0.00600802 0.0244155 -0.013655 0.000423 -0.0600809 0.0373384 0.0570253 2650 
3874 1 -0.067311 -0.0199992 -0.0131216 0.000423 -0.143986 0.440751 0.738641 2650 
3399 1 -0.0676722 -0.0113489 -0.0132544 4.2e-05 -0.615122 0.192496 3.1406 2650 
3551 1 -0.00691755 0.000411261 -0.012864 0.000423 -0.015336 0.00523015 0.00637389 2650 
4126 1 -0.00552976 0.000376868 -0.0131468 0.000116 -0.0261531 0.0084042 0.00402279 2650 
2525 1 -0.004063 0.000988682 -0.013231 4.2e-05 0 -0.011753 0 2650 
3733 1 -0.00715534 0.00161578 -0.0133096 0.000656 -0.023221 0.0173181 0.0154659 2650 
2619 1 -0.005851 0.00180468 -0.012854 0.000116 0 -0.011753 0 2650 
3880 1 -0.010277 0.00272068 -0.012913 0.000423 0 -0.011753 0 2650 
2609 1 -0.00886 0.00252868 -0.013248 0.000116 0 -0.011753 0 2650 
3917 1 -0.003984 0.00328968 -0.012703 0.000116 0 -0.011753 0 2650 
2059 1 -0.003583 0.00349868 -0.012756 0.000116 0 -0.011753 0 2650 
234 1 -4.57545e-05 0.00331507 -0.0128546 0.000423 0.0351287 -0.0167305 0.0264562 2650 
1192 1 -0.00565473 0.00419279 -0.012716 0.000116 -0.0160738 0.0171838 -0.0228619 2650 
2912 1 -0.00556908 0.00520874 -0.01321 0.000116 0.00196064 0.0151142 0.00117299 2650 
3446 1 -0.00204311 0.00526319 -0.0127469 0.000423 0.014297 -0.016402 -0.00312272 2650 
4078 1 -0.00972489 0.00595476 -0.0126673 0.000423 -0.0196946 -0.00953845 0.00130892 2650 
1427 1 -0.002948 0.00582968 -0.013376 4.2e-05 0 -0.011753 0 2650 
450 1 -0.00606163 0.00693665 -0.0129859 0.000656 0.0112424 0.0469319 0.00733295 2650 
104 1 -0.00318715 0.00634372 -0.0128149 4.2e-05 -0.00674979 0.0150481 0.0116551 2650 
2344 1 -0.000756573 0.00660168 -0.0128676 0.000423 0.00597873 -0.023338 -0.0226217 2650 
3259 1 -0.00898951 0.00730572 -0.0128573 0.000116 0.00491448 -0.00683461 -0.00168833 2650 
1795 1 -0.00876139 0.00787034 -0.0129647 0.000423 -0.00370069 -0.00801652 0.00216388 2650 
1237 1 -0.00961596 0.00834228 -0.0133922 0.000423 0.0146777 0.0141302 -0.00833191 2650 
205 1 -0.000744 0.00854568 -0.01334 0.000116 0 -0.011753 0 2650 
3847 1 -0.00957025 0.00914942 -0.0126641 0.000656 0.00223772 0.0142639 -0.00523739 2650 
2483 1 -0.00852547 0.0089408 -0.0129521 0.000116 0.0222317 -0.00887276 -0.000700143 2650 
2092 1 -0.00443057 0.00901603 -0.0126558 0.000656 -0.0434988 0.00182259 -0.0432859 2650 
508 1 -0.010445 0.0101668 -0.013018 0.000116 -0.0281885 0.0711476 0.0146726 2650 
1775 1 -0.00823058 0.0113185 -0.0130558 0.000423 -7.29146e-05 -0.011186 -0.000346901 2650 
949 1 -0.00712056 0.011952 -0.0129593 0.000116 -0.0176518 0.0277962 -0.00593252 2650 
3632 1 -0.010313 0.0128091 -0.0129968 0.000423 -0.0216519 0.000467483 0.0139725 2650 
3106 1 -0.00899934 0.0128033 -0.0128438 0.000423 -0.042507 0.0242048 -0.0146805 2650 
1143 1 -0.000549989 0.0148881 -0.0127586 0.000423 0.0070315 0.0110531 -0.00616027 2650 
1195 1 -0.0107087 0.0243157 -0.0130635 0.000116 0.0557766 0.0782116 -0.0138054 2650 
913 1 -0.00212883 0.0266843 -0.0133496 0.000423 -0.0558551 0.0664181 0.070885 2650 
694 1 -0.00336076 0.0518511 -0.0126648 0.000423 0.0939046 0.181508 -0.117107 2650 
2201 1 -0.0672528 -0.0389746 -0.0121762 0.000656 -0.0900005 -0.214764 0.497099 2650 
4074 1 -0.0674377 -0.035281 -0.0124544 0.000423 -0.618438 1.27284 3.34869 2650 
4097 1 -0.0088638 -0.00232382 -0.0118648 0.000423 0.0222564 -0.0142204 -0.0225559 2650 
1763 1 -0.001143 -0.00232532 -0.012442 0.000656 0 -0.011753 0 2650 
2468 1 -0.00511824 -0.00134057 -0.0121236 0.000423 -0.0504222 0.0211365 0.000191011 2650 
3191 1 -0.00784383 -0.000231209 -0.0125919 0.000656 -0.0197381 0.00193499 -0.0014393 2650 
1422 1 -0.003881 -0.000479318 -0.012349 4.2e-05 0 -0.011753 0 2650 
1799 1 -0.00322809 0.000325933 -0.0120552 0.000423 7.10678e-05 -0.0118308 4.63239e-05 2650 
3956 1 -0.00906186 0.00125476 -0.0123214 0.000656 -0.000640959 -0.0104529 -0.000368355 2650 
541 1 -0.006797 0.00103231 -0.0123785 4.2e-05 -0.0143735 0.00954058 0.00936495 2650 
3389 1 -0.010415 0.00178668 -0.012026 0.000116 0 -0.011753 0 2650 