ITEM: TIMESTEP
0
ITEM: NUMBER OF ATOMS
0
ITEM: BOX BOUNDS pp pp mm
-0.01 0.01
-0.01 0.01
-8.875e-06 0.1
ITEM: ATOMS id x y z f_force_cyl[1] f_force_cyl[2] f_force_cyl[3] 
ITEM: TIMESTEP
100
ITEM: NUMBER OF ATOMS
0
ITEM: BOX BOUNDS pp pp mm
-0.01 0.01
-0.01 0.01
-8.875e-06 0.1
ITEM: ATOMS id x y z f_force_cyl[1] f_force_cyl[2] f_force_cyl[3] 
ITEM: TIMESTEP
200
ITEM: NUMBER OF ATOMS
0
ITEM: BOX BOUNDS pp pp mm
-0.01 0.01
-0.01 0.01
-8.875e-06 0.1
ITEM: ATOMS id x y z f_force_cyl[1] f_force_cyl[2] f_force_cyl[3] 
ITEM: TIMESTEP
300
ITEM: NUMBER OF ATOMS
0
ITEM: BOX BOUNDS pp pp mm
-0.01 0.01
-0.01 0.01
-8.875e-06 0.1
ITEM: ATOMS id x y z f_force_cyl[1] f_force_cyl[2] f_force_cyl[3] 
ITEM: TIMESTEP
400
ITEM: NUMBER OF ATOMS
0
ITEM: BOX BOUNDS pp pp mm
-0.01 0.01
-0.01 0.01
-8.875e-06 0.1
ITEM: ATOMS id x y z f_force_cyl[1] f_force_cyl[2] f_force_cyl[3] 
ITEM: TIMESTEP
500
ITEM: NUMBER OF ATOMS
0
ITEM: BOX BOUNDS pp pp mm
-0.01 0.01
-0.01 0.01
-8.875e-06 0.1
ITEM: ATOMS id x y z f_force_cyl[1] f_force_cyl[2] f_force_cyl[3] 
ITEM: TIMESTEP
600
ITEM: NUMBER OF ATOMS
0
ITEM: BOX BOUNDS pp pp mm
-0.01 0.01
-0.01 0.01
-8.875e-06 0.1
ITEM: ATOMS id x y z f_force_cyl[1] f_force_cyl[2] f_force_cyl[3] 
ITEM: TIMESTEP
700
ITEM: NUMBER OF ATOMS
0
ITEM: BOX BOUNDS pp pp mm
-0.01 0.01
-0.01 0.01
-8.875e-06 0.1
ITEM: ATOMS id x y z f_force_cyl[1] f_force_cyl[2] f_force_cyl[3] 
ITEM: TIMESTEP
800
ITEM: NUMBER OF ATOMS
0
ITEM: BOX BOUNDS pp pp mm
-0.01 0.01
-0.01 0.01
-8.875e-06 0.1
ITEM: ATOMS id x y z f_force_cyl[1] f_force_cyl[2] f_force_cyl[3] 
ITEM: TIMESTEP
900
ITEM: NUMBER OF ATOMS
0
ITEM: BOX BOUNDS pp pp mm
-0.01 0.01
-0.01 0.01
-8.875e-06 0.1
ITEM: ATOMS id x y z f_force_cyl[1] f_force_cyl[2] f_force_cyl[3] 
ITEM: TIMESTEP
1000
ITEM: NUMBER OF ATOMS
0
ITEM: BOX BOUNDS pp pp mm
-0.01 0.01
-0.01 0.01
-8.875e-06 0.1
ITEM: ATOMS id x y z f_force_cyl[1] f_force_cyl[2] f_force_cyl[3] 
ITEM: TIMESTEP
1100
ITEM: NUMBER OF ATOMS
0
ITEM: BOX BOUNDS pp pp mm
-0.01 0.01
-0.01 0.01
-8.875e-06 0.1
ITEM: ATOMS id x y z f_force_cyl[1] f_force_cyl[2] f_force_cyl[3] 
ITEM: TIMESTEP
1200
ITEM: NUMBER OF ATOMS
0
ITEM: BOX BOUNDS pp pp mm
-0.01 0.01
-0.01 0.01
-8.875e-06 0.1
ITEM: ATOMS id x y z f_force_cyl[1] f_force_cyl[2] f_force_cyl[3] 
ITEM: TIMESTEP
1300
ITEM: NUMBER OF ATOMS
0
ITEM: BOX BOUNDS pp pp mm
-0.01 0.01
-0.01 0.01
-8.875e-06 0.1
ITEM: ATOMS id x y z f_force_cyl[1] f_force_cyl[2] f_force_cyl[3] 
ITEM: TIMESTEP
1400
ITEM: NUMBER OF ATOMS
0
ITEM: BOX BOUNDS pp pp mm
-0.01 0.01
-0.01 0.01
-8.875e-06 0.1
ITEM: ATOMS id x y z f_force_cyl[1] f_force_cyl[2] f_force_cyl[3] 
ITEM: TIMESTEP
1500
ITEM: NUMBER OF ATOMS
0
ITEM: BOX BOUNDS pp pp mm
-0.01 0.01
-0.01 0.01
-8.875e-06 0.1
ITEM: ATOMS id x y z f_force_cyl[1] f_force_cyl[2] f_force_cyl[3] 
ITEM: TIMESTEP
1600
ITEM: NUMBER OF ATOMS
0
ITEM: BOX BOUNDS pp pp mm
-0.01 0.01
-0.01 0.01
-8.875e-06 0.1
ITEM: ATOMS id x y z f_force_cyl[1] f_force_cyl[2] f_force_cyl[3] 
ITEM: TIMESTEP
1700
ITEM: NUMBER OF ATOMS
0
ITEM: BOX BOUNDS pp pp mm
-0.01 0.01
-0.01 0.01
-8.875e-06 0.1
ITEM: ATOMS id x y z f_force_cyl[1] f_force_cyl[2] f_force_cyl[3] 
ITEM: TIMESTEP
1800
ITEM: NUMBER OF ATOMS
0
ITEM: BOX BOUNDS pp pp mm
-0.01 0.01
-0.01 0.01
-8.875e-06 0.1
ITEM: ATOMS id x y z f_force_cyl[1] f_force_cyl[2] f_force_cyl[3] 
ITEM: TIMESTEP
1900
ITEM: NUMBER OF ATOMS
0
ITEM: BOX BOUNDS pp pp mm
-0.01 0.01
-0.01 0.01
-8.875e-06 0.1
ITEM: ATOMS id x y z f_force_cyl[1] f_force_cyl[2] f_force_cyl[3] 
ITEM: TIMESTEP
2000
ITEM: NUMBER OF ATOMS
0
ITEM: BOX BOUNDS pp pp mm
-0.01 0.01
-0.01 0.01
-8.875e-06 0.1
ITEM: ATOMS id x y z f_force_cyl[1] f_force_cyl[2] f_force_cyl[3] 
ITEM: TIMESTEP
2100
ITEM: NUMBER OF ATOMS
0
ITEM: BOX BOUNDS pp pp mm
-0.01 0.01
-0.01 0.01
-8.875e-06 0.1
ITEM: ATOMS id x y z f_force_cyl[1] f_force_cyl[2] f_force_cyl[3] 
ITEM: TIMESTEP
2200
ITEM: NUMBER OF ATOMS
0
ITEM: BOX BOUNDS pp pp mm
-0.01 0.01
-0.01 0.01
-8.875e-06 0.1
ITEM: ATOMS id x y z f_force_cyl[1] f_force_cyl[2] f_force_cyl[3] 
ITEM: TIMESTEP
2300
ITEM: NUMBER OF ATOMS
0
ITEM: BOX BOUNDS pp pp mm
-0.01 0.01
-0.01 0.01
-8.875e-06 0.1
ITEM: ATOMS id x y z f_force_cyl[1] f_force_cyl[2] f_force_cyl[3] 
ITEM: TIMESTEP
2400
ITEM: NUMBER OF ATOMS
0
ITEM: BOX BOUNDS pp pp mm
-0.01 0.01
-0.01 0.01
-8.875e-06 0.1
ITEM: ATOMS id x y z f_force_cyl[1] f_force_cyl[2] f_force_cyl[3] 
ITEM: TIMESTEP
2500
ITEM: NUMBER OF ATOMS
0
ITEM: BOX BOUNDS pp pp mm
-0.01 0.01
-0.01 0.01
-8.875e-06 0.1
ITEM: ATOMS id x y z f_force_cyl[1] f_force_cyl[2] f_force_cyl[3] 
ITEM: TIMESTEP
2600
ITEM: NUMBER OF ATOMS
0
ITEM: BOX BOUNDS pp pp mm
-0.01 0.01
-0.01 0.01
-8.875e-06 0.1
ITEM: ATOMS id x y z f_force_cyl[1] f_force_cyl[2] f_force_cyl[3] 
ITEM: TIMESTEP
2700
ITEM: NUMBER OF ATOMS
0
ITEM: BOX BOUNDS pp pp mm
-0.01 0.01
-0.01 0.01
-8.875e-06 0.1
ITEM: ATOMS id x y z f_force_cyl[1] f_force_cyl[2] f_force_cyl[3] 
ITEM: TIMESTEP
2800
ITEM: NUMBER OF ATOMS
0
ITEM: BOX BOUNDS pp pp mm
-0.01 0.01
-0.01 0.01
-8.875e-06 0.1
ITEM: ATOMS id x y z f_force_cyl[1] f_force_cyl[2] f_force_cyl[3] 
ITEM: TIMESTEP
2900
ITEM: NUMBER OF ATOMS
0
ITEM: BOX BOUNDS pp pp mm
-0.01 0.01
-0.01 0.01
-8.875e-06 0.1
ITEM: ATOMS id x y z f_force_cyl[1] f_force_cyl[2] f_force_cyl[3] 
ITEM: TIMESTEP
3000
ITEM: NUMBER OF ATOMS
0
ITEM: BOX BOUNDS pp pp mm
-0.01 0.01
-0.01 0.01
-8.875e-06 0.1
ITEM: ATOMS id x y z f_force_cyl[1] f_force_cyl[2] f_force_cyl[3] 
ITEM: TIMESTEP
3100
ITEM: NUMBER OF ATOMS
0
ITEM: BOX BOUNDS pp pp mm
-0.01 0.01
-0.01 0.01
-8.875e-06 0.1
ITEM: ATOMS id x y z f_force_cyl[1] f_force_cyl[2] f_force_cyl[3] 
ITEM: TIMESTEP
3200
ITEM: NUMBER OF ATOMS
0
ITEM: BOX BOUNDS pp pp mm
-0.01 0.01
-0.01 0.01
-8.875e-06 0.1
ITEM: ATOMS id x y z f_force_cyl[1] f_force_cyl[2] f_force_cyl[3] 
ITEM: TIMESTEP
3300
ITEM: NUMBER OF ATOMS
0
ITEM: BOX BOUNDS pp pp mm
-0.01 0.01
-0.01 0.01
-8.875e-06 0.1
ITEM: ATOMS id x y z f_force_cyl[1] f_force_cyl[2] f_force_cyl[3] 
ITEM: TIMESTEP
3400
ITEM: NUMBER OF ATOMS
0
ITEM: BOX BOUNDS pp pp mm
-0.01 0.01
-0.01 0.01
-8.875e-06 0.1
ITEM: ATOMS id x y z f_force_cyl[1] f_force_cyl[2] f_force_cyl[3] 
ITEM: TIMESTEP
3500
ITEM: NUMBER OF ATOMS
0
ITEM: BOX BOUNDS pp pp mm
-0.01 0.01
-0.01 0.01
-8.875e-06 0.1
ITEM: ATOMS id x y z f_force_cyl[1] f_force_cyl[2] f_force_cyl[3] 
ITEM: TIMESTEP
3600
ITEM: NUMBER OF ATOMS
0
ITEM: BOX BOUNDS pp pp mm
-0.01 0.01
-0.01 0.01
-8.875e-06 0.1
ITEM: ATOMS id x y z f_force_cyl[1] f_force_cyl[2] f_force_cyl[3] 
ITEM: TIMESTEP
3700
ITEM: NUMBER OF ATOMS
0
ITEM: BOX BOUNDS pp pp mm
-0.01 0.01
-0.01 0.01
-8.875e-06 0.1
ITEM: ATOMS id x y z f_force_cyl[1] f_force_cyl[2] f_force_cyl[3] 
ITEM: TIMESTEP
3800
ITEM: NUMBER OF ATOMS
0
ITEM: BOX BOUNDS pp pp mm
-0.01 0.01
-0.01 0.01
-8.875e-06 0.1
ITEM: ATOMS id x y z f_force_cyl[1] f_force_cyl[2] f_force_cyl[3] 
ITEM: TIMESTEP
3900
ITEM: NUMBER OF ATOMS
0
ITEM: BOX BOUNDS pp pp mm
-0.01 0.01
-0.01 0.01
-8.875e-06 0.1
ITEM: ATOMS id x y z f_force_cyl[1] f_force_cyl[2] f_force_cyl[3] 
ITEM: TIMESTEP
4000
ITEM: NUMBER OF ATOMS
0
ITEM: BOX BOUNDS pp pp mm
-0.01 0.01
-0.01 0.01
-8.875e-06 0.1
ITEM: ATOMS id x y z f_force_cyl[1] f_force_cyl[2] f_force_cyl[3] 
ITEM: TIMESTEP
4100
ITEM: NUMBER OF ATOMS
0
ITEM: BOX BOUNDS pp pp mm
-0.01 0.01
-0.01 0.01
-8.875e-06 0.1
ITEM: ATOMS id x y z f_force_cyl[1] f_force_cyl[2] f_force_cyl[3] 
ITEM: TIMESTEP
4200
ITEM: NUMBER OF ATOMS
0
ITEM: BOX BOUNDS pp pp mm
-0.01 0.01
-0.01 0.01
-8.875e-06 0.1
ITEM: ATOMS id x y z f_force_cyl[1] f_force_cyl[2] f_force_cyl[3] 
ITEM: TIMESTEP
4300
ITEM: NUMBER OF ATOMS
0
ITEM: BOX BOUNDS pp pp mm
-0.01 0.01
-0.01 0.01
-8.875e-06 0.1
ITEM: ATOMS id x y z f_force_cyl[1] f_force_cyl[2] f_force_cyl[3] 
ITEM: TIMESTEP
4400
ITEM: NUMBER OF ATOMS
0
ITEM: BOX BOUNDS pp pp mm
-0.01 0.01
-0.01 0.01
-8.875e-06 0.1
ITEM: ATOMS id x y z f_force_cyl[1] f_force_cyl[2] f_force_cyl[3] 
ITEM: TIMESTEP
4500
ITEM: NUMBER OF ATOMS
0
ITEM: BOX BOUNDS pp pp mm
-0.01 0.01
-0.01 0.01
-8.875e-06 0.1
ITEM: ATOMS id x y z f_force_cyl[1] f_force_cyl[2] f_force_cyl[3] 
ITEM: TIMESTEP
4600
ITEM: NUMBER OF ATOMS
0
ITEM: BOX BOUNDS pp pp mm
-0.01 0.01
-0.01 0.01
-8.875e-06 0.1
ITEM: ATOMS id x y z f_force_cyl[1] f_force_cyl[2] f_force_cyl[3] 
ITEM: TIMESTEP
4700
ITEM: NUMBER OF ATOMS
0
ITEM: BOX BOUNDS pp pp mm
-0.01 0.01
-0.01 0.01
-8.875e-06 0.1
ITEM: ATOMS id x y z f_force_cyl[1] f_force_cyl[2] f_force_cyl[3] 
ITEM: TIMESTEP
4800
ITEM: NUMBER OF ATOMS
0
ITEM: BOX BOUNDS pp pp mm
-0.01 0.01
-0.01 0.01
-8.875e-06 0.1
ITEM: ATOMS id x y z f_force_cyl[1] f_force_cyl[2] f_force_cyl[3] 
ITEM: TIMESTEP
4900
ITEM: NUMBER OF ATOMS
0
ITEM: BOX BOUNDS pp pp mm
-0.01 0.01
-0.01 0.01
-8.875e-06 0.1
ITEM: ATOMS id x y z f_force_cyl[1] f_force_cyl[2] f_force_cyl[3] 
ITEM: TIMESTEP
5000
ITEM: NUMBER OF ATOMS
0
ITEM: BOX BOUNDS pp pp mm
-0.01 0.01
-0.01 0.01
-8.875e-06 0.1
ITEM: ATOMS id x y z f_force_cyl[1] f_force_cyl[2] f_force_cyl[3] 
ITEM: TIMESTEP
5100
ITEM: NUMBER OF ATOMS
0
ITEM: BOX BOUNDS pp pp mm
-0.01 0.01
-0.01 0.01
-8.875e-06 0.1
ITEM: ATOMS id x y z f_force_cyl[1] f_force_cyl[2] f_force_cyl[3] 
ITEM: TIMESTEP
5200
ITEM: NUMBER OF ATOMS
0
ITEM: BOX BOUNDS pp pp mm
-0.01 0.01
-0.01 0.01
-8.875e-06 0.1
ITEM: ATOMS id x y z f_force_cyl[1] f_force_cyl[2] f_force_cyl[3] 
ITEM: TIMESTEP
5300
ITEM: NUMBER OF ATOMS
0
ITEM: BOX BOUNDS pp pp mm
-0.01 0.01
-0.01 0.01
-8.875e-06 0.1
ITEM: ATOMS id x y z f_force_cyl[1] f_force_cyl[2] f_force_cyl[3] 
ITEM: TIMESTEP
5400
ITEM: NUMBER OF ATOMS
0
ITEM: BOX BOUNDS pp pp mm
-0.01 0.01
-0.01 0.01
-8.875e-06 0.1
ITEM: ATOMS id x y z f_force_cyl[1] f_force_cyl[2] f_force_cyl[3] 
ITEM: TIMESTEP
5500
ITEM: NUMBER OF ATOMS
0
ITEM: BOX BOUNDS pp pp mm
-0.01 0.01
-0.01 0.01
-8.875e-06 0.1
ITEM: ATOMS id x y z f_force_cyl[1] f_force_cyl[2] f_force_cyl[3] 
ITEM: TIMESTEP
5600
ITEM: NUMBER OF ATOMS
0
ITEM: BOX BOUNDS pp pp mm
-0.01 0.01
-0.01 0.01
-8.875e-06 0.1
ITEM: ATOMS id x y z f_force_cyl[1] f_force_cyl[2] f_force_cyl[3] 
ITEM: TIMESTEP
5700
ITEM: NUMBER OF ATOMS
0
ITEM: BOX BOUNDS pp pp mm
-0.01 0.01
-0.01 0.01
-8.875e-06 0.1
ITEM: ATOMS id x y z f_force_cyl[1] f_force_cyl[2] f_force_cyl[3] 
ITEM: TIMESTEP
5800
ITEM: NUMBER OF ATOMS
0
ITEM: BOX BOUNDS pp pp mm
-0.01 0.01
-0.01 0.01
-8.875e-06 0.1
ITEM: ATOMS id x y z f_force_cyl[1] f_force_cyl[2] f_force_cyl[3] 
ITEM: TIMESTEP
5900
ITEM: NUMBER OF ATOMS
0
ITEM: BOX BOUNDS pp pp mm
-0.01 0.01
-0.01 0.01
-8.875e-06 0.1
ITEM: ATOMS id x y z f_force_cyl[1] f_force_cyl[2] f_force_cyl[3] 
ITEM: TIMESTEP
6000
ITEM: NUMBER OF ATOMS
0
ITEM: BOX BOUNDS pp pp mm
-0.01 0.01
-0.01 0.01
-8.875e-06 0.1
ITEM: ATOMS id x y z f_force_cyl[1] f_force_cyl[2] f_force_cyl[3] 
ITEM: TIMESTEP
6100
ITEM: NUMBER OF ATOMS
0
ITEM: BOX BOUNDS pp pp mm
-0.01 0.01
-0.01 0.01
-8.875e-06 0.1
ITEM: ATOMS id x y z f_force_cyl[1] f_force_cyl[2] f_force_cyl[3] 
ITEM: TIMESTEP
6200
ITEM: NUMBER OF ATOMS
0
ITEM: BOX BOUNDS pp pp mm
-0.01 0.01
-0.01 0.01
-8.875e-06 0.1
ITEM: ATOMS id x y z f_force_cyl[1] f_force_cyl[2] f_force_cyl[3] 
ITEM: TIMESTEP
6300
ITEM: NUMBER OF ATOMS
0
ITEM: BOX BOUNDS pp pp mm
-0.01 0.01
-0.01 0.01
-8.875e-06 0.1
ITEM: ATOMS id x y z f_force_cyl[1] f_force_cyl[2] f_force_cyl[3] 
ITEM: TIMESTEP
6400
ITEM: NUMBER OF ATOMS
0
ITEM: BOX BOUNDS pp pp mm
-0.01 0.01
-0.01 0.01
-8.875e-06 0.1
ITEM: ATOMS id x y z f_force_cyl[1] f_force_cyl[2] f_force_cyl[3] 
ITEM: TIMESTEP
6500
ITEM: NUMBER OF ATOMS
0
ITEM: BOX BOUNDS pp pp mm
-0.01 0.01
-0.01 0.01
-8.875e-06 0.1
ITEM: ATOMS id x y z f_force_cyl[1] f_force_cyl[2] f_force_cyl[3] 
ITEM: TIMESTEP
6600
ITEM: NUMBER OF ATOMS
0
ITEM: BOX BOUNDS pp pp mm
-0.01 0.01
-0.01 0.01
-8.875e-06 0.1
ITEM: ATOMS id x y z f_force_cyl[1] f_force_cyl[2] f_force_cyl[3] 
ITEM: TIMESTEP
6700
ITEM: NUMBER OF ATOMS
0
ITEM: BOX BOUNDS pp pp mm
-0.01 0.01
-0.01 0.01
-8.875e-06 0.1
ITEM: ATOMS id x y z f_force_cyl[1] f_force_cyl[2] f_force_cyl[3] 
ITEM: TIMESTEP
6800
ITEM: NUMBER OF ATOMS
0
ITEM: BOX BOUNDS pp pp mm
-0.01 0.01
-0.01 0.01
-8.875e-06 0.1
ITEM: ATOMS id x y z f_force_cyl[1] f_force_cyl[2] f_force_cyl[3] 
ITEM: TIMESTEP
6900
ITEM: NUMBER OF ATOMS
0
ITEM: BOX BOUNDS pp pp mm
-0.01 0.01
-0.01 0.01
-8.875e-06 0.1
ITEM: ATOMS id x y z f_force_cyl[1] f_force_cyl[2] f_force_cyl[3] 
ITEM: TIMESTEP
7000
ITEM: NUMBER OF ATOMS
0
ITEM: BOX BOUNDS pp pp mm
-0.01 0.01
-0.01 0.01
-8.875e-06 0.1
ITEM: ATOMS id x y z f_force_cyl[1] f_force_cyl[2] f_force_cyl[3] 
ITEM: TIMESTEP
7100
ITEM: NUMBER OF ATOMS
0
ITEM: BOX BOUNDS pp pp mm
-0.01 0.01
-0.01 0.01
-8.875e-06 0.1
ITEM: ATOMS id x y z f_force_cyl[1] f_force_cyl[2] f_force_cyl[3] 
ITEM: TIMESTEP
7200
ITEM: NUMBER OF ATOMS
0
ITEM: BOX BOUNDS pp pp mm
-0.01 0.01
-0.01 0.01
-8.875e-06 0.1
ITEM: ATOMS id x y z f_force_cyl[1] f_force_cyl[2] f_force_cyl[3] 
ITEM: TIMESTEP
7300
ITEM: NUMBER OF ATOMS
0
ITEM: BOX BOUNDS pp pp mm
-0.01 0.01
-0.01 0.01
-8.875e-06 0.1
ITEM: ATOMS id x y z f_force_cyl[1] f_force_cyl[2] f_force_cyl[3] 
ITEM: TIMESTEP
7400
ITEM: NUMBER OF ATOMS
0
ITEM: BOX BOUNDS pp pp mm
-0.01 0.01
-0.01 0.01
-8.875e-06 0.1
ITEM: ATOMS id x y z f_force_cyl[1] f_force_cyl[2] f_force_cyl[3] 
ITEM: TIMESTEP
7500
ITEM: NUMBER OF ATOMS
0
ITEM: BOX BOUNDS pp pp mm
-0.01 0.01
-0.01 0.01
-8.875e-06 0.1
ITEM: ATOMS id x y z f_force_cyl[1] f_force_cyl[2] f_force_cyl[3] 
ITEM: TIMESTEP
7600
ITEM: NUMBER OF ATOMS
0
ITEM: BOX BOUNDS pp pp mm
-0.01 0.01
-0.01 0.01
-8.875e-06 0.1
ITEM: ATOMS id x y z f_force_cyl[1] f_force_cyl[2] f_force_cyl[3] 
ITEM: TIMESTEP
7700
ITEM: NUMBER OF ATOMS
0
ITEM: BOX BOUNDS pp pp mm
-0.01 0.01
-0.01 0.01
-8.875e-06 0.1
ITEM: ATOMS id x y z f_force_cyl[1] f_force_cyl[2] f_force_cyl[3] 
ITEM: TIMESTEP
7800
ITEM: NUMBER OF ATOMS
0
ITEM: BOX BOUNDS pp pp mm
-0.01 0.01
-0.01 0.01
-8.875e-06 0.1
ITEM: ATOMS id x y z f_force_cyl[1] f_force_cyl[2] f_force_cyl[3] 
ITEM: TIMESTEP
7900
ITEM: NUMBER OF ATOMS
0
ITEM: BOX BOUNDS pp pp mm
-0.01 0.01
-0.01 0.01
-8.875e-06 0.1
ITEM: ATOMS id x y z f_force_cyl[1] f_force_cyl[2] f_force_cyl[3] 
ITEM: TIMESTEP
8000
ITEM: NUMBER OF ATOMS
0
ITEM: BOX BOUNDS pp pp mm
-0.01 0.01
-0.01 0.01
-8.875e-06 0.1
ITEM: ATOMS id x y z f_force_cyl[1] f_force_cyl[2] f_force_cyl[3] 
ITEM: TIMESTEP
8100
ITEM: NUMBER OF ATOMS
0
ITEM: BOX BOUNDS pp pp mm
-0.01 0.01
-0.01 0.01
-8.875e-06 0.1
ITEM: ATOMS id x y z f_force_cyl[1] f_force_cyl[2] f_force_cyl[3] 
ITEM: TIMESTEP
8200
ITEM: NUMBER OF ATOMS
0
ITEM: BOX BOUNDS pp pp mm
-0.01 0.01
-0.01 0.01
-8.875e-06 0.1
ITEM: ATOMS id x y z f_force_cyl[1] f_force_cyl[2] f_force_cyl[3] 
ITEM: TIMESTEP
8300
ITEM: NUMBER OF ATOMS
0
ITEM: BOX BOUNDS pp pp mm
-0.01 0.01
-0.01 0.01
-8.875e-06 0.1
ITEM: ATOMS id x y z f_force_cyl[1] f_force_cyl[2] f_force_cyl[3] 
ITEM: TIMESTEP
8400
ITEM: NUMBER OF ATOMS
0
ITEM: BOX BOUNDS pp pp mm
-0.01 0.01
-0.01 0.01
-8.875e-06 0.1
ITEM: ATOMS id x y z f_force_cyl[1] f_force_cyl[2] f_force_cyl[3] 
ITEM: TIMESTEP
8500
ITEM: NUMBER OF ATOMS
0
ITEM: BOX BOUNDS pp pp mm
-0.01 0.01
-0.01 0.01
-8.875e-06 0.1
ITEM: ATOMS id x y z f_force_cyl[1] f_force_cyl[2] f_force_cyl[3] 
ITEM: TIMESTEP
8600
ITEM: NUMBER OF ATOMS
0
ITEM: BOX BOUNDS pp pp mm
-0.01 0.01
-0.01 0.01
-8.875e-06 0.1
ITEM: ATOMS id x y z f_force_cyl[1] f_force_cyl[2] f_force_cyl[3] 
ITEM: TIMESTEP
8700
ITEM: NUMBER OF ATOMS
0
ITEM: BOX BOUNDS pp pp mm
-0.01 0.01
-0.01 0.01
-8.875e-06 0.1
ITEM: ATOMS id x y z f_force_cyl[1] f_force_cyl[2] f_force_cyl[3] 
ITEM: TIMESTEP
8800
ITEM: NUMBER OF ATOMS
0
ITEM: BOX BOUNDS pp pp mm
-0.01 0.01
-0.01 0.01
-8.875e-06 0.1
ITEM: ATOMS id x y z f_force_cyl[1] f_force_cyl[2] f_force_cyl[3] 
ITEM: TIMESTEP
8900
ITEM: NUMBER OF ATOMS
0
ITEM: BOX BOUNDS pp pp mm
-0.01 0.01
-0.01 0.01
-8.875e-06 0.1
ITEM: ATOMS id x y z f_force_cyl[1] f_force_cyl[2] f_force_cyl[3] 
ITEM: TIMESTEP
9000
ITEM: NUMBER OF ATOMS
0
ITEM: BOX BOUNDS pp pp mm
-0.01 0.01
-0.01 0.01
-8.875e-06 0.1
ITEM: ATOMS id x y z f_force_cyl[1] f_force_cyl[2] f_force_cyl[3] 
ITEM: TIMESTEP
9100
ITEM: NUMBER OF ATOMS
0
ITEM: BOX BOUNDS pp pp mm
-0.01 0.01
-0.01 0.01
-8.875e-06 0.1
ITEM: ATOMS id x y z f_force_cyl[1] f_force_cyl[2] f_force_cyl[3] 
ITEM: TIMESTEP
9200
ITEM: NUMBER OF ATOMS
0
ITEM: BOX BOUNDS pp pp mm
-0.01 0.01
-0.01 0.01
-8.875e-06 0.1
ITEM: ATOMS id x y z f_force_cyl[1] f_force_cyl[2] f_force_cyl[3] 
ITEM: TIMESTEP
9300
ITEM: NUMBER OF ATOMS
0
ITEM: BOX BOUNDS pp pp mm
-0.01 0.01
-0.01 0.01
-8.875e-06 0.1
ITEM: ATOMS id x y z f_force_cyl[1] f_force_cyl[2] f_force_cyl[3] 
ITEM: TIMESTEP
9400
ITEM: NUMBER OF ATOMS
0
ITEM: BOX BOUNDS pp pp mm
-0.01 0.01
-0.01 0.01
-8.875e-06 0.1
ITEM: ATOMS id x y z f_force_cyl[1] f_force_cyl[2] f_force_cyl[3] 
ITEM: TIMESTEP
9500
ITEM: NUMBER OF ATOMS
0
ITEM: BOX BOUNDS pp pp mm
-0.01 0.01
-0.01 0.01
-8.875e-06 0.1
ITEM: ATOMS id x y z f_force_cyl[1] f_force_cyl[2] f_force_cyl[3] 
ITEM: TIMESTEP
9600
ITEM: NUMBER OF ATOMS
0
ITEM: BOX BOUNDS pp pp mm
-0.01 0.01
-0.01 0.01
-8.875e-06 0.1
ITEM: ATOMS id x y z f_force_cyl[1] f_force_cyl[2] f_force_cyl[3] 
ITEM: TIMESTEP
9700
ITEM: NUMBER OF ATOMS
0
ITEM: BOX BOUNDS pp pp mm
-0.01 0.01
-0.01 0.01
-8.875e-06 0.1
ITEM: ATOMS id x y z f_force_cyl[1] f_force_cyl[2] f_force_cyl[3] 
ITEM: TIMESTEP
9800
ITEM: NUMBER OF ATOMS
0
ITEM: BOX BOUNDS pp pp mm
-0.01 0.01
-0.01 0.01
-8.875e-06 0.1
ITEM: ATOMS id x y z f_force_cyl[1] f_force_cyl[2] f_force_cyl[3] 
ITEM: TIMESTEP
9900
ITEM: NUMBER OF ATOMS
0
ITEM: BOX BOUNDS pp pp mm
-0.01 0.01
-0.01 0.01
-8.875e-06 0.1
ITEM: ATOMS id x y z f_force_cyl[1] f_force_cyl[2] f_force_cyl[3] 
ITEM: TIMESTEP
10000
ITEM: NUMBER OF ATOMS
0
ITEM: BOX BOUNDS pp pp mm
-0.01 0.01
-0.01 0.01
-8.875e-06 0.1
ITEM: ATOMS id x y z f_force_cyl[1] f_force_cyl[2] f_force_cyl[3] 
ITEM: TIMESTEP
10100
ITEM: NUMBER OF ATOMS
0
ITEM: BOX BOUNDS pp pp mm
-0.01 0.01
-0.01 0.01
-8.875e-06 0.1
ITEM: ATOMS id x y z f_force_cyl[1] f_force_cyl[2] f_force_cyl[3] 
ITEM: TIMESTEP
10200
ITEM: NUMBER OF ATOMS
0
ITEM: BOX BOUNDS pp pp mm
-0.01 0.01
-0.01 0.01
-8.875e-06 0.1
ITEM: ATOMS id x y z f_force_cyl[1] f_force_cyl[2] f_force_cyl[3] 
ITEM: TIMESTEP
10300
ITEM: NUMBER OF ATOMS
6
ITEM: BOX BOUNDS pp pp mm
-0.01 0.01
-0.01 0.01
-8.875e-06 0.1
ITEM: ATOMS id x y z f_force_cyl[1] f_force_cyl[2] f_force_cyl[3] 
334 -0.000383531 -0.00265665 0.0282086 -0.00155055 0 0.0510674 
567 -0.00150915 -0.000321144 0.0280019 0 0 0 
211 -0.00165969 0.00261725 0.0285707 0 0 0 
598 9.98471e-05 0.0048708 0.0282155 0.000223334 0 0.00430333 
548 -0.00076181 0.00798718 0.0281151 -0.00679839 0 0.0236284 
327 0.000862689 -0.0017837 0.0288421 0 0 0 
ITEM: TIMESTEP
10400
ITEM: NUMBER OF ATOMS
15
ITEM: BOX BOUNDS pp pp mm
-0.01 0.01
-0.01 0.01
-8.875e-06 0.1
ITEM: ATOMS id x y z f_force_cyl[1] f_force_cyl[2] f_force_cyl[3] 
437 0.00194786 -0.00670964 0.027553 0.0202408 0 0.0267621 
334 -0.000487006 -0.00265665 0.0283526 0 0 0 
323 0.00255272 -0.00438932 0.0272495 0 0 0 
567 -0.00176512 -0.000381464 0.0277417 0 0 0 
560 -0.00213594 0.0011219 0.0276147 0 0 0 
211 -0.00172809 0.00261725 0.0277403 0.00276271 0 -0.00523024 
598 0.000113853 0.00482975 0.0282238 0.000661333 0.00160693 0.0104932 
548 -0.00095357 0.00799541 0.0282436 0 0 0 
349 0.00124364 -0.00817928 0.0283671 0 0 0 
432 -0.0019303 -0.00647899 0.0281386 0 0 0 
412 -0.000156037 -0.00450961 0.0286283 0 0 0 
327 0.000919101 -0.0017837 0.0281209 0 0 0 
367 -0.00145335 0.00588537 0.0278693 -0.0152988 0 0.0485837 
242 -0.00223822 0.00724062 0.0280426 0 0 0 
193 0.00208303 0.00648013 0.0280006 0 0 0 
ITEM: TIMESTEP
10500
ITEM: NUMBER OF ATOMS
27
ITEM: BOX BOUNDS pp pp mm
-0.01 0.01
-0.01 0.01
-8.875e-06 0.1
ITEM: ATOMS id x y z f_force_cyl[1] f_force_cyl[2] f_force_cyl[3] 
437 0.00233983 -0.00673879 0.0272698 0 0 0 
334 -0.000644939 -0.00258257 0.0282715 0 0 0 
323 0.00286065 -0.00438932 0.0266874 0 0 0 
413 0.00321736 -0.00282252 0.0263574 0 0 0 
201 -0.00356857 -0.000896637 0.0267066 0 0 0 
567 -0.00204918 -0.000487591 0.0275678 0 0 0 
560 -0.00240439 0.00121267 0.0272367 0 0 0 
211 -0.00198886 0.00261581 0.0275572 -0.00229059 0.000166467 0.00183123 
598 4.7359e-05 0.00468948 0.0282662 0 0 0 
548 -0.00108491 0.00804409 0.0280468 -0.00113898 -6.1525e-05 0.00371023 
349 0.00143428 -0.00817928 0.0279887 0 0 0 
432 -0.00211811 -0.00647899 0.0275089 0 0 0 
263 -0.000509613 -0.00706662 0.0281954 0.000938837 0 -0.00677981 
590 -0.00156126 -0.00512269 0.0280629 0 0 0 
504 -0.00289717 -0.00477261 0.0273637 0 0 0 
412 -0.000185111 -0.00448376 0.0282567 0 0 0 
502 -0.00068988 -0.000812582 0.0285823 0 0 0 
327 0.000989739 -0.00173619 0.028093 0.00161348 -0.000401711 0.00175204 
279 0.00250073 -0.00230478 0.027912 0 0 0 
420 0.00300622 0.00161388 0.026932 0 0 0 
442 -0.00131721 0.00395652 0.0279315 -0.00623629 0 0.0097352 
564 0.00169642 0.00275896 0.0284536 0 0 0 
196 0.00260074 0.00369857 0.0273291 0 0 0 
367 -0.00177386 0.00590566 0.0277004 -0.0110945 0.0075152 0.0173817 
242 -0.00236535 0.0072154 0.0272007 -0.000373197 -2.28721e-05 0.000996764 
193 0.00228273 0.00648013 0.0273618 0 0 0 
541 0.00138416 0.00766061 0.0284929 0 0 0 
ITEM: TIMESTEP
10600
ITEM: NUMBER OF ATOMS
32
ITEM: BOX BOUNDS pp pp mm
-0.01 0.01
-0.01 0.01
-8.875e-06 0.1
ITEM: ATOMS id x y z f_force_cyl[1] f_force_cyl[2] f_force_cyl[3] 
437 0.0026982 -0.00680832 0.0268382 0 0 0 
334 -0.000817927 -0.00249042 0.0281565 0 0 0 
323 0.00328488 -0.00439246 0.0262754 0 0 0 
413 0.00322455 -0.00282252 0.0253317 0.00233537 0 0.00148424 
201 -0.00356857 -0.000896637 0.0256717 0 0 0 
567 -0.00233324 -0.000593718 0.0273842 0 0 0 
560 -0.00273346 0.0012525 0.0270212 0 0 0 
211 -0.00222572 0.00267208 0.0273731 0 0 0 
598 -5.67077e-05 0.00449465 0.0283448 0 0 0 
548 -0.00133333 0.00806795 0.0280354 0 0 0 
349 0.00177672 -0.0082026 0.0278283 0 0 0 
432 -0.0025611 -0.0064853 0.0273497 0 0 0 
263 -0.000716298 -0.00701131 0.028183 0 0 0 
590 -0.00192349 -0.00518003 0.0277123 0 0 0 
504 -0.00291849 -0.00477261 0.0263762 -0.00888527 0 0.00130134 
412 -0.000263305 -0.00452524 0.0282313 0.000308567 0.0021443 0.00453672 
502 -0.000796561 -0.000812582 0.0282149 0 0 0 
327 0.00113599 -0.00175232 0.0280757 0 0 0 
279 0.0027285 -0.00237123 0.027065 0 0 0 
530 0.0018134 -0.000332281 0.0282289 0 0 0 
420 0.00308721 0.00161388 0.026017 0 0 0 
442 -0.00162809 0.00402033 0.0279033 0 0 0 
564 0.0018116 0.00275896 0.0277094 0 0 0 
196 0.00284621 0.00369857 0.0266641 0 0 0 
367 -0.00208542 0.00599464 0.0275271 0 0 0 
242 -0.00280113 0.00721086 0.0268056 0 0 0 
299 -0.00140118 0.00527962 0.0286911 0 0 0 
193 0.0027354 0.00648013 0.0271539 0 0 0 
541 0.00153035 0.00766061 0.0279049 0 0 0 
478 0.000554065 -0.00780486 0.0286985 0 0 0 
215 -0.00110146 0.000771448 0.0284058 0 0 0 
471 0.000597441 0.00179404 0.0281495 0.00525747 0 0.0234516 
ITEM: TIMESTEP
10700
ITEM: NUMBER OF ATOMS
39
ITEM: BOX BOUNDS pp pp mm
-0.01 0.01
-0.01 0.01
-8.875e-06 0.1
ITEM: ATOMS id x y z f_force_cyl[1] f_force_cyl[2] f_force_cyl[3] 
437 0.00295203 -0.00690647 0.026399 0 0 0 
334 -0.000961682 -0.00242465 0.0282152 0 0 0 
323 0.00339948 -0.00451341 0.0256832 0 0 0 
413 0.00332871 -0.00282252 0.0244112 0 0 0 
201 -0.00356857 -0.000896637 0.0246269 0 0 0 
567 -0.0026173 -0.000699845 0.0271907 0 0 0 
560 -0.00302805 0.00124593 0.0266502 0 0 0 
211 -0.00245817 0.00276084 0.0271769 0 0 0 
598 -0.000222207 0.00436012 0.0282164 0.00389855 0.000864494 0.014958 
548 -0.00159905 0.00811657 0.0279114 0 0 0 
349 0.00210022 -0.00820758 0.027463 0.000111337 -1.33482e-05 0.00044864 
432 -0.00286274 -0.00659824 0.0268039 0 0 0 
263 -0.000893973 -0.00700298 0.0281287 0 0 0 
590 -0.00230472 -0.00515828 0.0275299 0 0 0 
668 0.0001969 -0.00646257 0.0289937 0 0 0 
504 -0.00316589 -0.00480769 0.0257517 0 0 0 
412 -0.000386471 -0.00452118 0.0282939 0 0 0 
502 -0.00108765 -0.000828236 0.0281124 0 0 0 
327 0.00131575 -0.00176445 0.0280781 0 0 0 
279 0.00298823 -0.00243825 0.02628 0 0 0 
530 0.00204079 -8.87107e-05 0.0275601 0 0 0 
420 0.00322912 0.00166196 0.0253255 0.000350503 -0.000161917 0.000114632 
442 -0.00193597 0.00405972 0.027815 0 0 0 
564 0.0022289 0.00275896 0.0276332 0 0 0 
196 0.00328075 0.00369857 0.0262321 0 0 0 
367 -0.00242715 0.00611784 0.0274055 0 0 0 
242 -0.00314243 0.00716091 0.026311 0 0 0 
299 -0.00134801 0.00532141 0.0284022 0 0 0 
193 0.00318808 0.00648013 0.0269361 0 0 0 
541 0.00170685 0.00760913 0.0277551 -0.000862222 -0.000649078 0.000280733 
650 -0.00226849 -0.007651 0.0281175 0 0 0 
478 0.000660031 -0.00789025 0.0283052 0 0 0 
374 0.0015906 -0.00521593 0.0280868 0 0 0 
372 0.000274197 -0.00331561 0.0289197 0 0 0 
233 -0.00256104 -0.00285012 0.0279075 0 0 0 
535 0.00024712 -0.000666326 0.028943 0 0 0 
215 -0.00125858 0.000785323 0.0280141 0 0 0 
471 0.000768683 0.00179404 0.0283227 0 0 0 
660 0.0018422 0.00479921 0.0280894 0 0 0 
ITEM: TIMESTEP
10800
ITEM: NUMBER OF ATOMS
47
ITEM: BOX BOUNDS pp pp mm
-0.01 0.01
-0.01 0.01
-8.875e-06 0.1
ITEM: ATOMS id x y z f_force_cyl[1] f_force_cyl[2] f_force_cyl[3] 
437 0.00309037 -0.00698823 0.0259469 0.0117856 -0.00134933 0.00637184 
334 -0.00103209 -0.0023825 0.0281775 0 0 0 
323 0.00351715 -0.00463359 0.0250827 0 0 0 
413 0.00343002 -0.00282252 0.0234826 0 0 0 
201 -0.00356857 -0.000896637 0.0235724 0 0 0 
567 -0.00280532 -0.00089946 0.0268899 0 0 0 
560 -0.00317149 0.00114094 0.0260483 0 0 0 
211 -0.00271955 0.00283823 0.0270003 0 0 0 
598 -0.000401881 0.00415767 0.0282354 0 0 0 
548 -0.00187531 0.00820022 0.0276368 -0.000367347 -0.0013736 0.00364475 
349 0.0025759 -0.0082073 0.0271747 0 0 0 
432 -0.0031133 -0.00674348 0.0261127 0 0 0 
263 -0.00109463 -0.00708708 0.0281212 0 0 0 
590 -0.00252011 -0.00522541 0.0270419 -0.00024243 0.000169407 0.000322554 
346 0.00324126 -0.00605241 0.0272773 0 0 0 
668 0.00019189 -0.00662765 0.028815 0 0 0 
504 -0.00342838 -0.00488403 0.0250745 0 0 0 
412 -0.000581233 -0.00446155 0.0282145 0 0 0 
502 -0.00143353 -0.000850324 0.0279229 0 0 0 
327 0.00149109 -0.00177161 0.0280137 0 0 0 
279 0.00331697 -0.00250579 0.0256547 0 0 0 
530 0.00245057 0.000153642 0.0271839 0 0 0 
420 0.00330978 0.00171084 0.0246458 0 0 0 
442 -0.00224177 0.00409362 0.0276572 0 0 0 
564 0.00258317 0.00264291 0.0270891 0 0 0 
196 0.00371529 0.00369857 0.0257902 0 0 0 
422 -0.00373344 0.00531071 0.0260143 0 0 0 
367 -0.00268347 0.00621627 0.0271687 0 0 0 
242 -0.00340452 0.00702582 0.0257324 0 0 0 
299 -0.00145862 0.00537995 0.0278788 -0.00594054 6.32455e-07 0.00620373 
555 -1.89394e-05 0.00550622 0.0288606 0 0 0 
514 -0.00377794 0.00867261 0.0258212 0 0 0 
541 0.00191547 0.00758489 0.0276011 0.00357017 -0.000874292 0.00764263 
650 -0.00257229 -0.00775942 0.0274044 0 0 0 
478 0.000803373 -0.0079834 0.028173 0 0 0 
374 0.00167586 -0.00510832 0.0277562 0.00644902 0.000107897 0.0103493 
372 0.000420808 -0.00327494 0.0286734 0 0 0 
233 -0.00275036 -0.00286365 0.0273206 0 0 0 
171 0.00247605 -0.00280242 0.0273179 0 0 0 
535 0.000357786 -0.000598355 0.0282111 0.00912867 -0.00498821 0.0398788 
503 -0.00307364 0.00148662 0.0275288 0 0 0 
215 -0.00153204 0.000868321 0.0278723 0 0 0 
471 0.000733889 0.00178471 0.0281496 0.000738164 0.004146 0.0286392 
441 0.00174384 0.000226243 0.0285078 0 0 0 
660 0.00204913 0.00479695 0.0275519 0 0 0 
492 0.0010207 0.00372273 0.0287925 0 0 0 
187 -0.000557123 0.00208431 0.0288035 0 0 0 
ITEM: TIMESTEP
10900
ITEM: NUMBER OF ATOMS
48
ITEM: BOX BOUNDS pp pp mm
-0.01 0.01
-0.01 0.01
-8.875e-06 0.1
ITEM: ATOMS id x y z f_force_cyl[1] f_force_cyl[2] f_force_cyl[3] 
437 0.00329732 -0.00698655 0.0254566 0 0 0 
334 -0.00104011 -0.00237773 0.0280983 0 0 0 
323 0.00363483 -0.00475378 0.0244723 0 0 0 
567 -0.00289814 -0.00120859 0.0264796 0 0 0 
560 -0.00329797 0.00101831 0.0254089 0 0 0 
211 -0.00290237 0.00289646 0.0267283 0 0 0 
598 -0.00047558 0.00395743 0.0281754 -0.00242348 -0.00404049 0.0248429 
548 -0.00223305 0.00832333 0.0273583 -0.000450166 -0.000373482 0.000987459 
349 0.00305662 -0.0082042 0.0268634 0 0 0 
432 -0.00336385 -0.00688872 0.0254117 0 0 0 
263 -0.00131117 -0.00715875 0.0280322 0 0 0 
590 -0.002826 -0.00530882 0.0266144 0 0 0 
346 0.00355716 -0.00602078 0.0266203 0 0 0 
668 0.000200238 -0.00663862 0.028407 0 0 0 
504 -0.00369086 -0.00496036 0.0243875 0 0 0 
412 -0.000762662 -0.00440049 0.0281608 0 0 0 
502 -0.00171751 -0.000863187 0.0277533 0.000767453 0.000922918 -0.000689124 
327 0.00179517 -0.00181599 0.0277275 0 0 0 
279 0.00364572 -0.00257334 0.0250195 0 0 0 
530 0.00289728 0.000430063 0.0267418 0 0 0 
420 0.00338965 0.00175936 0.0239568 0 0 0 
442 -0.00244919 0.00417368 0.0273914 0 0 0 
564 0.00293382 0.00250639 0.0264635 0 0 0 
422 -0.00383457 0.00528962 0.0251343 0 0 0 
367 -0.00279386 0.00620817 0.0266544 0.00255838 -0.000224096 -0.00161439 
242 -0.00366661 0.00689074 0.0251441 0 0 0 
299 -0.00157041 0.00542053 0.0278259 -0.00310305 0.00120992 0.00883208 
555 -5.94759e-05 0.005505 0.0285913 0 0 0 
514 -0.00392049 0.00881505 0.0248883 0 0 0 
541 0.00217213 0.0075684 0.0274541 0 0 0 
650 -0.00287609 -0.00786783 0.0266815 0 0 0 
478 0.000957492 -0.0081424 0.0281037 4.31978e-06 8.15315e-05 -0.00022814 
374 0.00192427 -0.00512578 0.0276228 0 0 0 
371 -0.00315995 -0.00404884 0.0273787 0 0 0 
372 0.000567419 -0.00323426 0.0284173 0 0 0 
233 -0.00289881 -0.00275193 0.0266679 0 0 0 
171 0.00281651 -0.00281952 0.0267756 0 0 0 
578 0.000591498 -0.00485395 0.0286432 0 0 0 
535 0.000521682 -0.000466691 0.0281937 0.00197789 -0.00484558 0.00953251 
503 -0.0032248 0.0013992 0.0269239 0 0 0 
215 -0.00183993 0.000826616 0.0277189 0 0 0 
471 0.000855636 0.0017707 0.0282121 0 0 0 
441 0.00185616 0.000442445 0.027958 0 0 0 
660 0.00234666 0.00478684 0.0273698 0 0 0 
492 0.00111892 0.0035172 0.02815 0 0 0 
173 0.00362529 0.00495522 0.0261007 0 0 0 
423 0.00209891 -0.00705623 0.0280868 0 0 0 
187 -0.000817423 0.0021504 0.0281546 0 0 0 
ITEM: TIMESTEP
11000
ITEM: NUMBER OF ATOMS
52
ITEM: BOX BOUNDS pp pp mm
-0.01 0.01
-0.01 0.01
-8.875e-06 0.1
ITEM: ATOMS id x y z f_force_cyl[1] f_force_cyl[2] f_force_cyl[3] 
437 0.00344177 -0.00703459 0.0248327 0 0 0 
334 -0.00121451 -0.00238575 0.0280318 0 0 0 
323 0.0037525 -0.00487396 0.0238521 0 0 0 
567 -0.00310684 -0.00120107 0.0260376 0 0 0 
560 -0.00337796 0.000918546 0.0246873 0 0 0 
211 -0.0030884 0.00294911 0.0264413 0 0 0 