LIGGGHTS (Version LIGGGHTS-PUBLIC 2.3.7, compiled 2014-02-10-15:29:02 by FGuillard based on LAMMPS 20 Apr 2012)
# Ecoulement autour d'un cylindre à différentes profondeurs

# =================== Variables ===============
variable d equal 0.0015
variable h equal 0.025
variable rho equal 2500
variable N equal 1000
variable seed1 equal 15835
variable seed2 equal 1834
#------------------- Variables calculées ---------------
variable radius equal $d/2
variable radius equal 0.0015/2
variable Lsimu equal 0.01
variable Hsimu equal 0.1
variable Dsimu equal 0.01
variable peau equal  2*$d
variable peau equal  2*0.0015
variable HinsertTop equal ${Hsimu}-$d
variable HinsertTop equal 0.1-$d
variable HinsertTop equal 0.1-0.0015
variable HinsertBottom equal ${Hsimu}-0.02
variable HinsertBottom equal 0.1-0.02
variable Linsert equal ${Lsimu}-$d
variable Linsert equal 0.01-$d
variable Linsert equal 0.01-0.0015
variable Dinsert equal ${Dsimu}-$d
variable Dinsert equal 0.01-$d
variable Dinsert equal 0.01-0.0015
variable IRAb equal $h+0.005
variable IRAb equal 0.025+0.005
variable IRAh equal $h+0.015
variable IRAh equal 0.025+0.015
variable IRBb equal ${Hsimu}-0.02
variable IRBb equal 0.1-0.02
variable IRBh equal ${Hsimu}-0.005
variable IRBh equal 0.1-0.005
variable NDebit equal $N*10
variable NDebit equal 1000*10
variable NA equal floor(0.6*4*${Lsimu}*${Dsimu}*$h/(0.5235*$d^3))
variable NA equal floor(0.6*4*0.01*${Dsimu}*$h/(0.5235*$d^3))
variable NA equal floor(0.6*4*0.01*0.01*$h/(0.5235*$d^3))
variable NA equal floor(0.6*4*0.01*0.01*0.025/(0.5235*$d^3))
variable NA equal floor(0.6*4*0.01*0.01*0.025/(0.5235*0.0015^3))
variable NB equal $N-${NA}
variable NB equal 1000-${NA}
variable NB equal 1000-3395
variable cylsc equal 0.01
variable cyloffZ equal ($h+0.02)/${cylsc}
variable cyloffZ equal (0.025+0.02)/${cylsc}
variable cyloffZ equal (0.025+0.02)/0.01
#==============================================

atom_style      granular
boundary        p p m
newton          off
communicate     single vel yes
units           si

region          reg block -${Lsimu} ${Lsimu} -${Dsimu} ${Dsimu} 0 ${Hsimu} units box
region          reg block -0.01 ${Lsimu} -${Dsimu} ${Dsimu} 0 ${Hsimu} units box
region          reg block -0.01 0.01 -${Dsimu} ${Dsimu} 0 ${Hsimu} units box
region          reg block -0.01 0.01 -0.01 ${Dsimu} 0 ${Hsimu} units box
region          reg block -0.01 0.01 -0.01 0.01 0 ${Hsimu} units box
region          reg block -0.01 0.01 -0.01 0.01 0 0.1 units box
create_box      1 reg
Created orthogonal box = (-0.01 -0.01 0) to (0.01 0.01 0.1)
  1 by 1 by 1 MPI processor grid
neighbor        ${peau} bin
neighbor        0.003 bin
neigh_modify    every 1 check yes
neigh_modify    delay 0

# ------------- définition des grains -----------------
pair_style      gran/hertz/history tangential_damping on cohesion off rolling_friction off viscous off
pair_coeff      * *
fix             m1 all property/global youngsModulus peratomtype 5.e6
fix             m2 all property/global poissonsRatio peratomtype 0.45
fix             m3 all property/global coefficientRestitution peratomtypepair 1 0.2
fix             m4 all property/global coefficientFriction peratomtypepair 1 0.5
#fix            m5 all property/global characteristicVelocity scalar 2.
#fix            m6 all property/global cohesionEnergyDensity peratomtypepair 1 500

timestep        0.00001

# ----------- Création du réseau au fond ----------------
#fix             wallfond all wall/gran/hertz/history 1 0 zplane 0 NULL 1
fix             wallfond all wall/gran/hertz/history primitive type 1 zplane 0.0 store_force yes rolling_friction off cohesion off tangential_damping on viscous off
lattice         sc $d origin 0. 0. ${radius}
lattice         sc 0.0015 origin 0. 0. ${radius}
lattice         sc 0.0015 origin 0. 0. 0.00075
Lattice spacing in x,y,z = 0.0015 0.0015 0.0015
region          insertregbas block -${Lsimu} ${Lsimu} -${Dsimu} ${Dsimu} 0 $d units box
region          insertregbas block -0.01 ${Lsimu} -${Dsimu} ${Dsimu} 0 $d units box
region          insertregbas block -0.01 0.01 -${Dsimu} ${Dsimu} 0 $d units box
region          insertregbas block -0.01 0.01 -0.01 ${Dsimu} 0 $d units box
region          insertregbas block -0.01 0.01 -0.01 0.01 0 $d units box
region          insertregbas block -0.01 0.01 -0.01 0.01 0 0.0015 units box
create_atoms    1 region insertregbas
Created 169 atoms
set             region insertregbas diameter $d density ${rho}
set             region insertregbas diameter 0.0015 density ${rho}
set             region insertregbas diameter 0.0015 density 2500
  169 settings made for diameter
  169 settings made for density
group           atmfond region insertregbas
169 atoms in group atmfond
neigh_modify    exclude group atmfond atmfond

# ------- Création de la pluie (première) -----
region          insertreg block -${Linsert} ${Linsert} -${Dinsert} ${Dinsert} ${HinsertBottom} ${HinsertTop} units box
region          insertreg block -0.0085 ${Linsert} -${Dinsert} ${Dinsert} ${HinsertBottom} ${HinsertTop} units box
region          insertreg block -0.0085 0.0085 -${Dinsert} ${Dinsert} ${HinsertBottom} ${HinsertTop} units box
region          insertreg block -0.0085 0.0085 -0.0085 ${Dinsert} ${HinsertBottom} ${HinsertTop} units box
region          insertreg block -0.0085 0.0085 -0.0085 0.0085 ${HinsertBottom} ${HinsertTop} units box
region          insertreg block -0.0085 0.0085 -0.0085 0.0085 0.08 ${HinsertTop} units box
region          insertreg block -0.0085 0.0085 -0.0085 0.0085 0.08 0.0985 units box
fix             gravi all gravity 9.81 chute 0.0
#fix            pluie all pour ${NA} 1 ${seed1} vol 0.3 3 diam uniform $d $d dens uniform ${rho} ${rho} vel uniform 0. 0. 0. 0. 0. region insertreg
fix             pts1 all particletemplate/sphere 1 atom_type 1 density constant 2500 radius constant ${radius}
fix             pts1 all particletemplate/sphere 1 atom_type 1 density constant 2500 radius constant 0.00075
fix             pdd1 all particledistribution/discrete 276 1 pts1 1
fix             pluie all insert/rate/region seed 1927 distributiontemplate pdd1 maxattempt 3 nparticles ${N} insert_every 5000 particlerate ${NDebit} overlapcheck yes verbose yes region insertreg
fix             pluie all insert/rate/region seed 1927 distributiontemplate pdd1 maxattempt 3 nparticles 1000 insert_every 5000 particlerate ${NDebit} overlapcheck yes verbose yes region insertreg
fix             pluie all insert/rate/region seed 1927 distributiontemplate pdd1 maxattempt 3 nparticles 1000 insert_every 5000 particlerate 10000 overlapcheck yes verbose yes region insertreg

#-------- Création du cylindre -----------
#fix            cyl all mesh/gran/stressanalysis ./CylOK.stl 1 ${cylsc} 0 0 ${cyloffZ} 0. 0. 0.
#fix             dowalls all wall/gran/hertz/history 1 0 mesh/gran/stressanalysis 1 cyl
fix             cyl all wall/gran/hertz/history primitive type 1 ycylinder 0.0025 $h 0.0 store_force yes tangential_damping on cohesion off rolling_friction off viscous off
fix             cyl all wall/gran/hertz/history primitive type 1 ycylinder 0.0025 0.025 0.0 store_force yes tangential_damping on cohesion off rolling_friction off viscous off

#restart         500000 restartsimu1ZPOF2-*

fix             fondfreeze atmfond freeze
fix             integr all nve/sphere

dump            dmp all custom 5000 dump.test id type x y z vx vy vz radius f_force_cyl[1] f_force_cyl[2] f_force_cyl[3]
#dump           dmp all custom 5000 dump.test1ZPOF id type x y z vx vy vz radius
#dump           dmp2 all mesh/gran/VTK 100 Post1ZPOF/dump.stress1ZPOF-* stresscomponents cyl
#compute         cout all pair/gran/local id force
#dump           forcedump all local 5000 dump.force1ZPOF c_cout[1] c_cout[2] c_cout[3] c_cout[4] c_cout[5] c_cout[6]
#dump            dumpstl all stl 5000 dump.stl1ZPOFi
compute        cout all pair/gran/local id force
dump            forcedump all local 5000 dump.force c_cout[1] c_cout[2] c_cout[3] c_cout[4] c_cout[5] c_cout[6]
region          dumpreg cylinder y 0 $h 0.004 -${Dsimu} ${Dsimu} units box
region          dumpreg cylinder y 0 0.025 0.004 -${Dsimu} ${Dsimu} units box
region          dumpreg cylinder y 0 0.025 0.004 -0.01 ${Dsimu} units box
region          dumpreg cylinder y 0 0.025 0.004 -0.01 0.01 units box
dump            dmp3 all custom 100 dump.forcewall id x y z f_force_cyl[1] f_force_cyl[2] f_force_cyl[3]
dump_modify     dmp3 region dumpreg

# ----- Check que le timestep est pas trop faible -----
fix             t all check/timestep/gran 500 0.2 0.2
thermo_style    custom step f_t[1] f_t[2]
thermo          500

#=======================================
#run             100000
#=======================================
#unfix           integr
#unfix           pluie
#unfix           pts1
#unfix           pdd1

#------------- Déplacement du cylindre à sa position ---------------
#fix             bouger all move/mesh/gran linear 0 0 -0.1 units box cyl
#fix             integr all nve/sphere

#=======================================
#run             120000 upto
#=======================================
#unfix           bouger
#unfix           integr

#region          insertregb block -${Lsimu} ${Lsimu} -${Dsimu} ${Dsimu} ${IRBb} ${IRBh} units box
#fix            pluie all pour ${NB} 1 ${seed2} vol 0.5 3 diam uniform $d $d dens uniform ${rho} ${rho} vel uniform 0. 0. 0. 0. 0. rate 0. region insertregb
#fix             pts1 all particletemplate/sphere 1 atom_type 1 density constant 2500 radius constant ${radius}
#fix             pdd1 all particledistribution/discrete 276 1 pts1 1
#fix             pluie all insert/rate/region seed 1927 distributiontemplate pdd1 maxattempt 3 nparticles ${N} insert_every 5000 particlerate ${NDebit} overlapcheck yes verbose yes region insertreg
#fix             integr all nve/sphere

#=======================================
run             75000 upto
INFO: Particle insertion pluie: 500.000000 particles every 5000 steps - particle rate 10000.000000, (mass rate 0.044179)
      1000 particles (mass 0.004418) within 10000 steps
Memory usage per processor = 11.3299 Mbytes
Step t[1] t[2] 
       0            0            0 
INFO: Particle insertion pluie: inserted 500 particle templates (mass 0.002209) at step 1
 - a total of 500 particle templates (mass 0.002209) inserted so far.
     500   0.10588299  0.024863944 
    1000   0.10588299   0.02856403 
    1500   0.10588299  0.030977917 
    2000   0.10588299  0.032813096 
    2500   0.10588299  0.034311014 
    3000   0.10588299  0.035585469 
    3500   0.10588299  0.036699836 
    4000   0.10588299  0.037693291 
    4500   0.10588299  0.038591865 
    5000   0.10588299  0.039413793 
INFO: Particle insertion pluie: inserted 431 particle templates (mass 0.001904) at step 5001
 - a total of 931 particle templates (mass 0.004113) inserted so far.
WARNING: Particle insertion: Less insertions than requested (fix_insert.cpp:647)
    5500   0.10588299  0.040224073 
    6000   0.10588299   0.04096216 
    6500   0.10588299  0.041614667 
    7000   0.10588299  0.042228909 
    7500   0.10588299  0.042809563 
    8000   0.10588299  0.043419508 
    8500   0.10588299  0.043941898 
    9000   0.10588299  0.044440583 
    9500   0.10588299  0.044917853 
   10000   0.10588299   0.04537567 
INFO: Particle insertion pluie: inserted 69 particle templates (mass 0.000305) at step 10001
 - a total of 1000 particle templates (mass 0.004418) inserted so far.
   10500   0.10588299  0.045815733 
   11000   0.10588299   0.04660739 
   11500   0.10588299  0.047119264 
   12000   0.10588299  0.047496971 
   12500   0.10588299  0.047863184 
   13000   0.10588299  0.048044263 
   13500   0.10588299  0.047975561 
   14000   0.10588299  0.047397945 
   14500   0.10588299  0.047278994 
   15000   0.10588299  0.047277287 
   15500   0.10588299  0.047502842 
   16000   0.10588299  0.047075787 
   16500   0.10588299  0.047346454 
   17000   0.10588299  0.047409679 
   17500   0.10588299  0.047744795 
   18000   0.10588299  0.047792954 
   18500   0.10588299  0.047505167 
   19000   0.10588299  0.045883641 
   19500   0.10588299  0.046302966 
   20000   0.10588299  0.046707802 
   20500   0.10588299  0.047099216 
   21000   0.10588299  0.046146366 
   21500   0.10588299  0.046558471 
   22000   0.10588299  0.046956482 
   22500   0.10588299  0.047341438 
   23000   0.10588299  0.047714266 
   23500   0.10588299  0.047596571 
   24000   0.10588299   0.04524423 
   24500   0.10588299  0.044728192 
   25000   0.10588299    0.0434489 
   25500   0.10588299  0.043258757 
   26000   0.10588299   0.04255682 
   26500   0.10588299  0.042297555 
   27000   0.10588299  0.042636194 
   27500   0.10588299   0.04232589 
   28000   0.10588299  0.042793197 
   28500   0.10588299   0.04188423 
   29000   0.10588299  0.040933215 
   29500   0.10588299  0.041533968 
   30000   0.10588299  0.042109097 
   30500   0.10588299  0.042162525 
   31000   0.10588299  0.040777547 
   31500   0.10588299  0.034971162 
   32000   0.10588299  0.035146452 
   32500   0.10588299  0.033846982 
   33000   0.10588299  0.033564661 
   33500   0.10588299  0.033605885 
   34000   0.10588299   0.03133124 
   34500   0.10588299  0.030506505 
   35000   0.10588299  0.029984043 
   35500   0.10588299  0.030313102 
   36000   0.10588299  0.025655794 
   36500   0.10588299  0.025533986 
   37000   0.10588299  0.026470531 
   37500   0.10588299  0.026921193 
   38000   0.10588299  0.024649168 
   38500   0.10588299  0.025756708 
   39000   0.10588299  0.023605931 
   39500   0.10588299  0.024107949 
   40000   0.10588299  0.022151612 
   40500   0.10588299  0.022286093 
   41000   0.10588299  0.023279316 
   41500   0.10588299  0.024660828 
   42000   0.10588299  0.026220247 
   42500   0.10588299  0.028430304 
   43000   0.10588299  0.022665259 
   43500   0.10588299  0.023181866 
   44000   0.10588299   0.02319399 
   44500   0.10588299  0.022628901 
   45000   0.10588299  0.024124236 
   45500   0.10588299  0.025149907 
   46000   0.10588299   0.02377813 
   46500   0.10588299  0.023680157 
   47000   0.10588299  0.023192935 
   47500   0.10588299  0.022012626 
   48000   0.10588299  0.021053715 
   48500   0.10588299  0.020776986 
   49000   0.10588299  0.021034217 
   49500   0.10588299  0.021772592 
   50000   0.10588299  0.022900814 
   50500   0.10588299  0.019843193 
   51000   0.10588299  0.017672401 
   51500   0.10588299  0.017621512 
   52000   0.10588299  0.014173362 
   52500   0.10588299  0.017160396 
   53000   0.10588299  0.019315267 
   53500   0.10588299  0.017695792 
   54000   0.10588299   0.01141185 
   54500   0.10588299  0.018483976 
   55000   0.10588299 0.0082545525 
   55500   0.10588299  0.013470502 
   56000   0.10588299  0.010987611 
   56500   0.10588299 0.0078918412 
   57000   0.10588299 0.0073344921 
   57500   0.10588299  0.006999686 
   58000   0.10588299 0.0061382291 
   58500   0.10588299 0.0060006823 
   59000   0.10588299 0.0057228236 
   59500   0.10588299 0.0054588212 
   60000   0.10588299  0.005122724 
   60500   0.10588299  0.004721047 
   61000   0.10588299  0.004274014 
   61500   0.10588299 0.0041597402 
   62000   0.10588299 0.0033968259 
   62500   0.10588299 0.0037420423 
   63000   0.10588299 0.0041263565 
   63500   0.10588299 0.0043301797 
   64000   0.10588299 0.0044305629 
   64500   0.10588299  0.004466773 
   65000   0.10588299 0.0044543526 
   65500   0.10588299 0.0044057317 
   66000   0.10588299 0.0043255042 
   66500   0.10588299 0.0042244114 
   67000   0.10588299 0.0041027688 
   67500   0.10588299 0.0039586588 
   68000   0.10588299 0.0037893952 
   68500   0.10588299 0.0035897977 
   69000   0.10588299 0.0033504921 
   69500   0.10588299 0.0030503744 
   70000   0.10588299 0.0026312126 
   70500   0.10588299  0.001831722 
   71000   0.10588299 0.0024096837 
   71500   0.10588299 0.0027267901 
   72000   0.10588299 0.0028853675 
   72500   0.10588299 0.0029707169 
   73000   0.10588299 0.0030105618 
   73500   0.10588299 0.0030175691 
   74000   0.10588299 0.0029989003 
   74500   0.10588299 0.0029587338 
   75000   0.10588299 0.0028995967 
Loop time of 40.3269 on 1 procs for 75000 steps with 1169 atoms

Pair  time (%) = 32.6805 (81.0389)
Neigh time (%) = 0.56288 (1.39579)
Comm  time (%) = 1.33473 (3.30978)
Outpt time (%) = 0.178095 (0.441628)
Other time (%) = 5.57072 (13.8139)

Nlocal:    1169 ave 1169 max 1169 min
Histogram: 1 0 0 0 0 0 0 0 0 0
Nghost:    1302 ave 1302 max 1302 min
Histogram: 1 0 0 0 0 0 0 0 0 0
Neighs:    69816 ave 69816 max 69816 min
Histogram: 1 0 0 0 0 0 0 0 0 0

Total # of neighbors = 69816
Ave neighs/atom = 59.7228
Neighbor list builds = 188
Dangerous builds = 0
#=======================================
unfix           pluie
unfix           integr
unfix           m3
fix             m3 all property/global coefficientRestitution peratomtypepair 1 0.6
fix             integr all nve/sphere
set             group atmfond vx 0.02
  169 settings made for vx

#=======================================
run             300000 upto
Memory usage per processor = 11.8759 Mbytes
Step t[1] t[2] 
   75000   0.10588299 0.0028995967 
   75500   0.10588299  0.022402578 
   76000   0.10588299  0.023085425 
   76500   0.10588299  0.023305374 
   77000   0.10588299   0.02369085 
   77500   0.10588299  0.022459273 
   78000   0.10588299  0.022162739 
   78500   0.10588299  0.022482511 
   79000   0.10588299  0.022439531 
   79500   0.10588299  0.021427804 
   80000   0.10588299  0.021634671 
   80500   0.10588299  0.021881049 
   81000   0.10588299   0.02225012 
   81500   0.10588299  0.021262191 
   82000   0.10588299  0.020858618 
   82500   0.10588299   0.02098901 
   83000   0.10588299  0.021292869 
   83500   0.10588299  0.021051572 
   84000   0.10588299  0.020919686 
   84500   0.10588299  0.021010991 
   85000   0.10588299  0.021162393 
   85500   0.10588299  0.021119179 
   86000   0.10588299  0.021229754 
   86500   0.10588299  0.021171183 
   87000   0.10588299  0.021530519 
   87500   0.10588299  0.021462993 
   88000   0.10588299  0.021322699 
   88500   0.10588299  0.021489307 
   89000   0.10588299  0.021263599 
   89500   0.10588299  0.022073461 
   90000   0.10588299  0.020914631 
   90500   0.10588299   0.02089863 
   91000   0.10588299  0.021195772 
   91500   0.10588299  0.020831748 
   92000   0.10588299  0.020817262 
   92500   0.10588299  0.020839978 
   93000   0.10588299  0.020856757 
   93500   0.10588299  0.020815908 
   94000   0.10588299  0.020813094 
   94500   0.10588299  0.020807198 
   95000   0.10588299  0.020824783 
   95500   0.10588299  0.020796129 
   96000   0.10588299  0.020803922 
   96500   0.10588299  0.020800861 
   97000   0.10588299   0.02079797 
   97500   0.10588299  0.020793206 
   98000   0.10588299   0.02080325 
   98500   0.10588299  0.020796654 
   99000   0.10588299  0.020793433 
   99500   0.10588299  0.020800834 
  100000   0.10588299  0.020791301 
  100500   0.10588299  0.020799169 
  101000   0.10588299  0.020789915 
  101500   0.10588299  0.020795163 
  102000   0.10588299  0.020789205 
  102500   0.10588299  0.020792907 
  103000   0.10588299  0.020792707 
  103500   0.10588299  0.020787377 
  104000   0.10588299  0.020796599 
  104500   0.10588299  0.020788008 
  105000   0.10588299  0.020794479 
  105500   0.10588299   0.02078594 
  106000   0.10588299  0.020788959 
  106500   0.10588299  0.020786835 
  107000   0.10588299  0.020787815 
  107500   0.10588299  0.020789278 
  108000   0.10588299   0.02078652 
  108500   0.10588299  0.020792565 
  109000   0.10588299  0.020786225 
  109500   0.10588299  0.020791642 
  110000   0.10588299  0.020786439 
  110500   0.10588299  0.020787758 
  111000   0.10588299  0.020787565 
  111500   0.10588299  0.020785016 
  112000   0.10588299  0.020787856 
  112500   0.10588299  0.020785474 
  113000   0.10588299  0.020790259 
  113500   0.10588299  0.020785385 
  114000   0.10588299   0.02078993 
  114500   0.10588299  0.020786487 
  115000   0.10588299   0.02078707 
  115500   0.10588299  0.020786408 
  116000   0.10588299  0.020784679 
  116500   0.10588299  0.020786876 
  117000   0.10588299  0.020784843 
  117500   0.10588299  0.020788767 
  118000   0.10588299  0.020785307 
  118500   0.10588299  0.020788465 
  119000   0.10588299  0.020785423 
  119500   0.10588299  0.020786447 
  120000   0.10588299  0.020784809 
  120500   0.10588299  0.020784764 
  121000   0.10588299   0.02078594 
  121500   0.10588299  0.020784994 
  122000   0.10588299  0.020787357 
  122500   0.10588299  0.020785161 
  123000   0.10588299   0.02078729 
  123500   0.10588299   0.02078477 
  124000   0.10588299  0.020785964 
  124500   0.10588299  0.020784662 
  125000   0.10588299   0.02078499 
  125500   0.10588299  0.020785294 
  126000   0.10588299  0.020785254 
  126500   0.10588299  0.020786354 
  127000   0.10588299  0.020784967 
  127500   0.10588299  0.020786371 
  128000   0.10588299  0.020784607 
  128500   0.10588299  0.020785489 
  129000   0.10588299  0.020784473 
  129500   0.10588299  0.020784882 
  130000   0.10588299  0.020784962 
  130500   0.10588299  0.020784828 
  131000   0.10588299  0.020785745 
  131500   0.10588299  0.020784519 
  132000   0.10588299  0.020785783 
  132500   0.10588299  0.020784591 
  133000   0.10588299  0.020785175 
  133500   0.10588299  0.020784606 
  134000   0.10588299  0.020784721 
  134500   0.10588299  0.020784722 
  135000   0.10588299  0.020784439 
  135500   0.10588299  0.020785296 
  136000   0.10588299  0.020784315 
  136500   0.10588299  0.020785368 
  137000   0.10588299  0.020784307 
  137500   0.10588299  0.020784982 
  138000   0.10588299  0.020784346 
  138500   0.10588299  0.020784547 
  139000   0.10588299  0.020784518 
  139500   0.10588299  0.020784365 
  140000   0.10588299   0.02078496 
  140500   0.10588299  0.020784331 
  141000   0.10588299  0.020785061 
  141500   0.10588299  0.020784321 
  142000   0.10588299  0.020784828 
  142500   0.10588299  0.020784328 
  143000   0.10588299  0.020784419 
  143500   0.10588299  0.020784388 
  144000   0.10588299  0.020784409 
  144500   0.10588299  0.020784725 
  145000   0.10588299  0.020784387 
  145500   0.10588299  0.020784828 
  146000   0.10588299   0.02078435 
  146500   0.10588299  0.020784687 
  147000   0.10588299  0.020784304 
  147500   0.10588299  0.020784395 
  148000   0.10588299  0.020784395 
  148500   0.10588299  0.020784328 
  149000   0.10588299  0.020784586 
  149500   0.10588299   0.02078435 
  150000   0.10588299  0.020784676 
  150500   0.10588299  0.020784359 
  151000   0.10588299  0.020784588 
  151500   0.10588299  0.020784358 
  152000   0.10588299  0.020784383 
  152500   0.10588299  0.020784409 
  153000   0.10588299  0.020784298 
  153500   0.10588299  0.020784495 
  154000   0.10588299  0.020784295 
  154500   0.10588299  0.020784573 
  155000   0.10588299  0.020784297 
  155500   0.10588299   0.02078452 
  156000   0.10588299  0.020784349 
  156500   0.10588299  0.020784375 
  157000   0.10588299   0.02078436 
  157500   0.10588299  0.020784298 
  158000   0.10588299  0.020784428 
  158500   0.10588299  0.020784295 
  159000   0.10588299  0.020784495 
  159500   0.10588299  0.020784312 
  160000   0.10588299  0.020784464 
  160500   0.10588299  0.020784325 
  161000   0.10588299  0.020784363 
  161500   0.10588299  0.020784306 
  162000   0.10588299  0.020784314 
  162500   0.10588299  0.020784379 
  163000   0.10588299  0.020784313 
  163500   0.10588299  0.020784432 
  164000   0.10588299  0.020784323 
  164500   0.10588299  0.020784415 
  165000   0.10588299  0.020784309 
  165500   0.10588299  0.020784345 
  166000   0.10588299  0.020784287 
  166500   0.10588299  0.020784302 
  167000   0.10588299  0.020784349 
  167500   0.10588299  0.020784316 
  168000   0.10588299  0.020784389 
  168500   0.10588299   0.02078431 
  169000   0.10588299  0.020784379 
  169500   0.10588299  0.020784303 
  170000   0.10588299  0.020784331 
  170500   0.10588299  0.020784301 
  171000   0.10588299  0.020784304 
  171500   0.10588299  0.020784329 
  172000   0.10588299  0.020784303 
  172500   0.10588299   0.02078436 
  173000   0.10588299   0.02078429 
  173500   0.10588299  0.020784355 
  174000   0.10588299  0.020784288 
  174500   0.10588299  0.020784322 
  175000   0.10588299  0.020784291 
  175500   0.10588299  0.020784302 
  176000   0.10588299  0.020784314 
  176500   0.10588299  0.020784292 
  177000   0.10588299  0.020784338 
  177500   0.10588299  0.020784289 
  178000   0.10588299  0.020784337 
  178500   0.10588299  0.020784288 
  179000   0.10588299  0.020784315 
  179500   0.10588299  0.020784288 
  180000   0.10588299  0.020784298 
  180500   0.10588299  0.020784303 
  181000   0.10588299   0.02078429 
  181500   0.10588299  0.020784321 
  182000   0.10588299  0.020784288 
  182500   0.10588299  0.020784322 
  183000   0.10588299  0.020784287 
  183500   0.10588299  0.020784308 
  184000   0.10588299  0.020784287 
  184500   0.10588299   0.02078429 
  185000   0.10588299  0.020784296 
  185500   0.10588299   0.02078429 
  186000   0.10588299   0.02078431 
  186500   0.10588299  0.020784291 
  187000   0.10588299  0.020784312 
  187500   0.10588299   0.02078429 
  188000   0.10588299  0.020784303 
  188500   0.10588299  0.020784289 
  189000   0.10588299  0.020784288 
  189500   0.10588299  0.020784293 
  190000   0.10588299  0.020784287 
  190500   0.10588299  0.020784303 
  191000   0.10588299  0.020784287 
  191500   0.10588299  0.020784305 
  192000   0.10588299  0.020784287 
  192500   0.10588299  0.020784299 
  193000   0.10588299  0.020784288 
  193500   0.10588299  0.020784288 
  194000   0.10588299  0.020784291 
  194500   0.10588299  0.020784287 
  195000   0.10588299  0.020784298 
  195500   0.10588299  0.020784287 
  196000   0.10588299    0.0207843 
  196500   0.10588299  0.020784287 
  197000   0.10588299  0.020784296 
  197500   0.10588299  0.020784288 
  198000   0.10588299  0.020784289 
  198500   0.10588299  0.020784289 
  199000   0.10588299  0.020784287 
  199500   0.10588299  0.020784294 
  200000   0.10588299  0.020784287 
  200500   0.10588299  0.020784296 
  201000   0.10588299  0.020784287 
  201500   0.10588299  0.020784294 
  202000   0.10588299  0.020784288 
  202500   0.10588299  0.020784289 
  203000   0.10588299  0.020784287 
  203500   0.10588299  0.020784287 
  204000   0.10588299  0.020784292 
  204500   0.10588299  0.020784287 
  205000   0.10588299  0.020784293 
  205500   0.10588299  0.020784288 
  206000   0.10588299  0.020784292 
  206500   0.10588299  0.020784287 
  207000   0.10588299  0.020784288 
  207500   0.10588299  0.020784287 
  208000   0.10588299  0.020784287 
  208500   0.10588299   0.02078429 
  209000   0.10588299  0.020784287 
  209500   0.10588299  0.020784291 
  210000   0.10588299  0.020784287 
  210500   0.10588299   0.02078429 
  211000   0.10588299  0.020784287 
  211500   0.10588299  0.020784288 
  212000   0.10588299  0.020784287 
  212500   0.10588299  0.020784287 
  213000   0.10588299  0.020784289 
  213500   0.10588299  0.020784287 
  214000   0.10588299   0.02078429 
  214500   0.10588299  0.020784287 
  215000   0.10588299  0.020784289 
  215500   0.10588299  0.020784287 
  216000   0.10588299  0.020784288 
  216500   0.10588299  0.020784286 
  217000   0.10588299  0.020784287 
  217500   0.10588299  0.020784288 
  218000   0.10588299  0.020784287 
  218500   0.10588299  0.020784289 
  219000   0.10588299  0.020784287 
  219500   0.10588299  0.020784289 
  220000   0.10588299  0.020784286 
  220500   0.10588299  0.020784287 
  221000   0.10588299  0.020784286 
  221500   0.10588299  0.020784287 
  222000   0.10588299  0.020784287 
  222500   0.10588299  0.020784287 
  223000   0.10588299  0.020784288 
  223500   0.10588299  0.020784287 
  224000   0.10588299  0.020784288 
  224500   0.10588299  0.020784287 
  225000   0.10588299  0.020784287 
  225500   0.10588299  0.020784286 
  226000   0.10588299  0.020784287 
  226500   0.10588299  0.020784287 
  227000   0.10588299  0.020784286 
  227500   0.10588299  0.020784288 
  228000   0.10588299  0.020784286 
  228500   0.10588299  0.020784288 
  229000   0.10588299  0.020784287 
  229500   0.10588299  0.020784287 
  230000   0.10588299  0.020784287 
  230500   0.10588299  0.020784286 
  231000   0.10588299  0.020784287 
  231500   0.10588299  0.020784286 
  232000   0.10588299  0.020784287 
  232500   0.10588299  0.020784286 
  233000   0.10588299  0.020784287 
  233500   0.10588299  0.020784286 
  234000   0.10588299  0.020784287 
  234500   0.10588299  0.020784286 
  235000   0.10588299  0.020784286 
  235500   0.10588299  0.020784287 
  236000   0.10588299  0.020784286 
  236500   0.10588299  0.020784287 
  237000   0.10588299  0.020784286 
  237500   0.10588299  0.020784287 
  238000   0.10588299  0.020784286 
  238500   0.10588299  0.020784287 
  239000   0.10588299  0.020784286 
  239500   0.10588299  0.020784286 
  240000   0.10588299  0.020784287 
  240500   0.10588299  0.020784286 
  241000   0.10588299  0.020784287 
  241500   0.10588299  0.020784286 
  242000   0.10588299  0.020784287 
  242500   0.10588299  0.020784286 
  243000   0.10588299  0.020784287 
  243500   0.10588299  0.020784286 
  244000   0.10588299  0.020784286 
  244500   0.10588299  0.020784287 
  245000   0.10588299  0.020784286 
  245500   0.10588299  0.020784287 
  246000   0.10588299  0.020784286 
  246500   0.10588299  0.020784287 
  247000   0.10588299  0.020784286 
  247500   0.10588299  0.020784287 
  248000   0.10588299  0.020784286 
  248500   0.10588299  0.020784286 
  249000   0.10588299  0.020784286 
  249500   0.10588299  0.020784286 
  250000   0.10588299  0.020784287 
  250500   0.10588299  0.020784286 
  251000   0.10588299  0.020784287 
  251500   0.10588299  0.020784286 
  252000   0.10588299  0.020784287 
  252500   0.10588299  0.020784286 
  253000   0.10588299  0.020784286 
  253500   0.10588299  0.020784286 
  254000   0.10588299  0.020784286 
  254500   0.10588299  0.020784287 
  255000   0.10588299  0.020784286 
  255500   0.10588299  0.020784287 
  256000   0.10588299  0.020784286 
  256500   0.10588299  0.020784287 
  257000   0.10588299  0.020784286 
  257500   0.10588299  0.020784286 
  258000   0.10588299  0.020784286 
  258500   0.10588299  0.020784286 
  259000   0.10588299  0.020784287 
  259500   0.10588299  0.020784286 
  260000   0.10588299  0.020784287 
  260500   0.10588299  0.020784286 
  261000   0.10588299  0.020784287 
  261500   0.10588299  0.020784286 
  262000   0.10588299  0.020784286 
  262500   0.10588299  0.020784286 
  263000   0.10588299  0.020784286 
  263500   0.10588299  0.020784286 
  264000   0.10588299  0.020784286 
  264500   0.10588299  0.020784287 
  265000   0.10588299  0.020784286 
  265500   0.10588299  0.020784286 
  266000   0.10588299  0.020784286 
  266500   0.10588299  0.020784286 
  267000   0.10588299  0.020784286 
  267500   0.10588299  0.020784286 
  268000   0.10588299  0.020784286 
  268500   0.10588299  0.020784286 
  269000   0.10588299  0.020784286 
  269500   0.10588299  0.020784286 
  270000   0.10588299  0.020784286 
  270500   0.10588299  0.020784286 
  271000   0.10588299  0.020784286 
  271500   0.10588299  0.020784286 
  272000   0.10588299  0.020784286 
  272500   0.10588299  0.020784286 
  273000   0.10588299  0.020784286 
  273500   0.10588299  0.020784286 
  274000   0.10588299  0.020784286 
  274500   0.10588299  0.020784286 
  275000   0.10588299  0.020784286 
  275500   0.10588299  0.020784286 
  276000   0.10588299  0.020784286 
  276500   0.10588299  0.020784286 
  277000   0.10588299  0.020784286 
  277500   0.10588299  0.020784286 
  278000   0.10588299  0.020784286 
  278500   0.10588299  0.020784286 
  279000   0.10588299  0.020784286 
  279500   0.10588299  0.020784286 
  280000   0.10588299  0.020784286 
  280500   0.10588299  0.020784286 
  281000   0.10588299  0.020784286 
  281500   0.10588299  0.020784286 
  282000   0.10588299  0.020784286 
  282500   0.10588299  0.020784286 
  283000   0.10588299  0.020784286 
  283500   0.10588299  0.020784286 
  284000   0.10588299  0.020784286 
  284500   0.10588299  0.020784286 
  285000   0.10588299  0.020784286 
  285500   0.10588299  0.020784286 
  286000   0.10588299  0.020784286 
  286500   0.10588299  0.020784286 
  287000   0.10588299  0.020784286 
  287500   0.10588299  0.020784286 
  288000   0.10588299  0.020784286 
  288500   0.10588299  0.020784286 
  289000   0.10588299  0.020784286 
  289500   0.10588299  0.020784286 
  290000   0.10588299  0.020784286 
  290500   0.10588299  0.020784286 
  291000   0.10588299  0.020784286 
  291500   0.10588299  0.020784286 
  292000   0.10588299  0.020784286 
  292500   0.10588299  0.020784286 
  293000   0.10588299  0.020784286 
  293500   0.10588299  0.020784286 
  294000   0.10588299  0.020784286 
  294500   0.10588299  0.020784286 
  295000   0.10588299  0.020784286 
  295500   0.10588299  0.020784286 
  296000   0.10588299  0.020784286 
  296500   0.10588299  0.020784286 
  297000   0.10588299  0.020784286 
  297500   0.10588299  0.020784286 
  298000   0.10588299  0.020784286 
  298500   0.10588299  0.020784286 
  299000   0.10588299  0.020784286 
  299500   0.10588299  0.020784286 
  300000   0.10588299  0.020784286 
Loop time of 151.102 on 1 procs for 225000 steps with 1169 atoms

Pair  time (%) = 127.853 (84.6138)
Neigh time (%) = 0.135719 (0.0898195)
Comm  time (%) = 4.13885 (2.73911)
Outpt time (%) = 0.711942 (0.471167)
Other time (%) = 18.2623 (12.0861)

Nlocal:    1169 ave 1169 max 1169 min
Histogram: 1 0 0 0 0 0 0 0 0 0
Nghost:    1284 ave 1284 max 1284 min
Histogram: 1 0 0 0 0 0 0 0 0 0
Neighs:    69379 ave 69379 max 69379 min
Histogram: 1 0 0 0 0 0 0 0 0 0

Total # of neighbors = 69379
Ave neighs/atom = 59.349
Neighbor list builds = 30
Dangerous builds = 0
#=======================================


