# vtk DataFile Version 4.0
Generated by LIGGGHTS
ASCII
DATASET POLYDATA
POINTS 1500 float
-0.0309472 -0.0323564 0.0156193 -0.0330618 -0.0296203 0.011601 -0.0302879 -0.0336974 0.0108383 
-0.0272712 -0.0303694 0.0128727 -0.02186 -0.0322748 0.0106392 -0.0253 -0.0355214 0.0142692 
-0.0163722 -0.0370398 0.0100602 -0.0234227 -0.0352769 0.00648599 -0.00805459 -0.0391515 0.0121399 
-0.0146049 -0.0420541 0.0089606 -0.0202378 -0.0344166 0.0157134 -0.00480087 -0.0445619 0.00803305 
-0.0099454 -0.0441999 0.00903276 -0.0114617 -0.0347761 0.0105459 -0.0125376 -0.0427803 0.0132833 
-0.0196659 -0.0407081 0.0107955 -0.012762 -0.0306704 0.013399 -0.0103849 -0.0385531 0.00755031 
-0.00395311 -0.0343732 0.00706192 -0.00745663 -0.0322394 0.0114679 -0.0103042 -0.0305028 0.0178079 
-0.00604125 -0.0451591 0.0128712 -0.00445164 -0.036296 0.0136098 -0.0257122 -0.0314094 0.0173655 
-0.00551176 -0.039315 0.00740088 -0.00258387 -0.0317916 0.0124662 -0.0146925 -0.0349243 0.0152928 
-0.00944115 -0.0349686 0.0149874 -0.0164382 -0.0397003 0.0143982 -0.00574305 -0.0313377 0.0163784 
-0.016322 -0.0318521 0.00920947 -0.0224409 -0.0395922 0.0151801 -0.0030762 -0.0411462 0.0130255 
-0.0051062 -0.0406548 0.0176511 -0.000324436 -0.038755 0.00861669 -0.0182965 -0.0289186 0.01483 
-0.000576987 -0.0358081 0.0164406 -0.0100483 -0.0395361 0.0167681 -0.0150228 -0.0429813 0.0176463 
-0.0100784 -0.0443874 0.0173569 -0.000569835 -0.0454814 0.0127425 -0.0158098 -0.0312982 0.0186016 
-0.00124304 -0.0453272 0.0179446 -0.000287214 -0.0406333 0.017242 -0.0362275 -0.0273931 0.0152026 
-0.0340881 -0.00882592 0.00913061 -0.0373753 -0.00590779 0.0184669 -0.0352063 -0.0133059 0.0119823 
-0.0382112 -0.019759 0.00748729 -0.0328954 -0.00583348 0.0163516 -0.0329854 -0.0171044 0.00979745 
-0.0341687 -0.0274912 0.00686978 -0.0331289 -0.0227001 0.00915695 -0.0346937 -0.000386197 0.00630084 
-0.0382864 -0.00665842 0.0114351 -0.0299226 -0.0117009 0.0068844 -0.0415386 -0.00491988 0.0161812 
-0.0448319 -0.00740515 0.0187609 -0.0447079 -0.00163318 0.0139587 -0.0392139 -0.0123828 0.0149995 
-0.0351186 -0.00108098 0.0178184 -0.0444615 -0.0093647 0.0138677 -0.030301 -0.0209916 0.0129123 
-0.0419234 -0.0162087 0.00887576 -0.0376452 -0.0183059 0.0129163 -0.0342357 -0.00305296 0.0114598 
-0.0372984 -0.0251932 0.00994472 -0.0320502 -0.0168992 0.0150032 -0.0394481 -0.0227157 0.0136765 
-0.0344977 -0.0230079 0.0141769 -0.0300118 -0.0108073 0.0169166 -0.0417647 -0.00204321 0.00646421 
-0.0427944 -0.0151746 0.0171572 -0.0373152 -0.0162926 0.0174618 -0.0295523 -0.00793676 0.0128444 
-0.0339429 -0.0199828 0.0185396 -0.0292161 -0.0140652 0.0114277 -0.0346147 -0.0122664 0.0176954 
-0.0291928 -0.0036296 0.0102865 -0.0387396 -0.001924 0.0128424 -0.0303044 -0.0270139 0.0152832 
-0.00896215 -0.0260754 0.00827012 -0.00103246 -0.016018 0.0168342 -0.00140746 -0.0277749 0.00900407 
-0.026133 -0.0284921 0.00853232 -0.0263704 -0.0195816 0.00987536 -0.0222796 -0.0166045 0.0111728 
-0.00365211 -0.0255286 0.0126525 -0.0170488 -0.024577 0.0101577 -0.00308147 -0.0225787 0.00805301 
-0.0266377 -0.0246009 0.0127976 -0.022089 -0.0273166 0.0111572 -0.00765824 -0.00321989 0.0117525 
-0.00854342 -0.0278683 0.0132202 -0.0217561 -0.0221376 0.0103423 -0.0107873 -0.0229226 0.0119081 
-0.0196376 -0.0184501 0.00740641 -0.0201231 -0.00910509 0.00930475 -0.0231768 -0.026349 0.0158809 
-0.0138771 -0.0103481 0.0073324 -0.0241967 -0.0206797 0.0142876 -0.0129761 -0.0227217 0.00728933 
-0.0107806 -0.0183786 0.0149545 -0.0239073 -0.00843517 0.0122659 -0.0228352 -0.0124145 0.0147873 
-0.0164328 -0.00798741 0.014248 -0.018287 -0.0122039 0.0125157 -0.0117111 -0.0104995 0.0137781 
-0.0148737 -0.0157908 0.0130529 -0.0145302 -0.0171686 0.00788213 -0.0211262 -0.0136979 0.00740327 
-0.00780714 -0.0212894 0.00676745 -0.00333965 -0.00339655 0.0139665 -0.0108738 -0.00586749 0.0151401 
-0.0209822 -0.00676162 0.0159995 -0.0143422 -0.0216486 0.0150677 -0.0189222 -0.0240619 0.0151641 
-0.0153987 -0.00353926 0.0163659 -0.0208989 -0.00135176 0.00842524 -0.0256627 -0.00801755 0.0173969 
-0.027078 -0.01461 0.0162623 -0.0190764 -0.0190736 0.0140583 -0.0124724 -0.0264553 0.0157289 
-0.00632199 -0.0211152 0.0132757 -0.00759095 -0.0129829 0.0125742 -0.0158401 -0.00483991 0.00727148 
-0.00863509 -0.00896284 0.00981163 -0.00965828 -0.0135569 0.0169105 -0.0131301 -0.00367915 0.0113666 
-0.0092537 -0.0014026 0.00702455 -0.00333556 -0.0238539 0.0172492 -0.00811005 -0.0245043 0.0166499 
-0.0225003 -0.016802 0.0169317 -0.0237611 -0.0224486 0.0188035 -0.00625974 -0.016991 0.0165121 
-0.0198296 -0.00110558 0.0180383 -0.028266 -0.0192636 0.0169732 -0.00567798 -0.00799739 0.0145642 
-0.00226519 -0.0113287 0.0137516 -0.00231505 -0.00708006 0.010442 -0.026251 -0.00413797 0.0145775 
-0.00978585 -0.0177016 0.00933827 -0.0183336 -0.00442873 0.0114034 -0.000553634 -0.0138952 0.00635929 
-0.000663368 -0.0107044 0.0183418 -0.0111935 -0.000105767 0.0148949 -0.0185646 -0.0140301 0.0177928 
-0.0169269 -4.86362e-06 0.0128935 -0.00120405 -0.000664302 0.00831053 -0.00118312 -0.0202356 0.0134655 
-0.0143402 -0.0117951 0.0184324 -0.00879023 -0.00888537 0.0183127 -0.00653447 -0.00463 0.0179192 
-0.00646794 -0.000240572 0.0158965 -0.0284393 -0.0238229 0.0185538 -0.0220669 -0.000249889 0.0137705 
-0.00208661 -0.0283298 0.0185944 -0.0318789 -0.0324401 0.0288302 -0.0311028 -0.0331717 0.0235088 
-0.0299663 -0.029366 0.0204169 -0.0349163 -0.0291797 0.0204794 -0.029733 -0.0318828 0.0339175 
-0.0351647 -0.0287738 0.0277543 -0.0271419 -0.0357838 0.0190939 -0.0111857 -0.0350783 0.0194796 
-0.0279716 -0.0355714 0.0281263 -0.0204966 -0.0299945 0.0192168 -0.0196834 -0.0408481 0.0191365 
-0.0173491 -0.0365109 0.0190583 -0.0242104 -0.0384806 0.0219881 -0.0262751 -0.0322157 0.0222457 
-0.0216055 -0.0346028 0.0203795 -0.0225611 -0.0394622 0.0267626 -0.0164368 -0.0421257 0.023385 
-0.0105383 -0.0398827 0.0307587 -0.0122161 -0.0438845 0.0217573 -0.0114815 -0.0400482 0.0256762 
-0.00644651 -0.0363054 0.0195859 -0.0233715 -0.0348289 0.0250774 -0.00214855 -0.045493 0.0237553 
-0.0088787 -0.0403741 0.0215266 -0.00169708 -0.0375917 0.0208179 -0.00425332 -0.0413317 0.0225116 
-0.00419109 -0.037166 0.0249422 -0.00810009 -0.0320445 0.0218388 -0.0136507 -0.0391248 0.0207289 
-0.00682164 -0.0408916 0.0268039 -0.00583087 -0.0450437 0.0196438 -0.0209154 -0.0383835 0.0328863 
-0.0193369 -0.0380354 0.0233393 -0.0128067 -0.0436837 0.0287279 -0.0240638 -0.038468 0.0368609 
-0.00786439 -0.0447626 0.0240094 -0.00799884 -0.0444804 0.0304745 -0.0246964 -0.0316091 0.029891 
-0.0197624 -0.0356876 0.0282882 -0.0154144 -0.0381279 0.0277837 -0.0155738 -0.0321985 0.027342 
-0.0227039 -0.0291538 0.0237346 -0.0105098 -0.0322218 0.0262208 -0.00750138 -0.0363351 0.0290557 
-0.0172058 -0.0332779 0.0319112 -0.0121597 -0.0351806 0.0298459 -0.00891588 -0.0362859 0.0240853 
-0.00311007 -0.032773 0.0201853 -0.00556978 -0.0322188 0.0260742 -0.00179774 -0.0333662 0.0334027 
-0.0281508 -0.0298335 0.0260974 -0.0137692 -0.0352901 0.024095 -0.00121246 -0.0368012 0.0287682 
-0.00159929 -0.0412625 0.0266036 -0.0189004 -0.0325115 0.023846 -0.000311329 -0.0341072 0.0242954 
-0.0124038 -0.0297345 0.0220908 -0.00821223 -0.0305357 0.0301459 -0.00114338 -0.0292072 0.02467 
-0.0202119 -0.0298232 0.0278114 -0.0125903 -0.0287297 0.0289025 -0.00101149 -0.0451144 0.0294622 
-0.00365766 -0.0287267 0.0288052 -0.0331807 -0.0248887 0.0187672 -0.029064 -0.00270486 0.0188094 
-0.041175 -0.0103943 0.0201 -0.041046 -0.00590395 0.0221128 -0.0400354 -0.0216139 0.0228048 
-0.038018 -0.0248346 0.0193941 -0.0353342 -0.0203028 0.0233876 -0.0353165 -0.0201289 0.0302479 
-0.0398469 -0.0210598 0.0281687 -0.0378786 -0.025197 0.0252799 -0.0333377 -0.0248263 0.023674 
-0.0352444 -0.015259 0.0319014 -0.0413467 -0.0169306 0.0310904 -0.0343613 -0.0155344 0.0229612 
-0.0431055 -0.0147739 0.0225185 -0.0436345 -0.0126724 0.0287636 -0.0388519 -0.0170032 0.0219809 
-0.0404608 -0.00821205 0.0270286 -0.0446218 -0.00897902 0.0234136 -0.0298003 -0.0257003 0.0338497 
-0.0413195 -0.00430231 0.0298388 -0.0306715 -0.0210681 0.02206 -0.0386457 -0.012969 0.0293125 
-0.0329858 -0.0147205 0.0276325 -0.039497 -0.0121055 0.0243268 -0.0374206 -0.0251822 0.0301952 
-0.0348039 -0.0111227 0.0248663 -0.033729 -0.008298 0.0205617 -0.0303773 -0.0204757 0.0326107 
-0.0372614 -0.0170542 0.0266106 -0.0450092 -0.00674721 0.0278973 -0.0358821 -0.00642143 0.0245946 
-0.0427482 -0.0138105 0.034504 -0.0450537 -0.00318962 0.0213147 -0.0303419 -0.00489158 0.0229911 
-0.0298396 -0.011121 0.0309596 -0.0331919 -0.0030216 0.0267084 -0.0345917 -0.0104261 0.0302222 
-0.0317604 -0.00786555 0.0268538 -0.0407208 -0.00905913 0.0319028 -0.0371008 -0.00254987 0.021983 
-0.0365374 -0.00575019 0.0297854 -0.04548 -0.000628521 0.0277755 -0.0307143 -0.0117795 0.0220018 
-0.0303833 -0.0163414 0.0202465 -0.0378065 -0.00122644 0.0272433 -0.0315187 -0.0214272 0.0268972 
-0.0446603 -0.00465269 0.0336661 -0.0306211 -0.00598375 0.0315654 -0.0413795 -0.00080614 0.023371 
-0.0297145 -0.0159839 0.0309484 -0.0297363 -0.0172345 0.0249508 -0.0307976 -0.026379 0.0286898 
-0.030507 -0.00065406 0.0329882 -0.0323002 -0.000106114 0.021832 -0.0289958 -9.76401e-05 0.026043 
-0.0186783 -0.0213296 0.0191361 -0.0242322 -0.00300202 0.01912 -0.0221243 -0.0112894 0.0195561 
-0.0171922 -0.028002 0.0236073 -0.00530778 -0.0281482 0.0223839 -0.00139016 -0.00552618 0.0200393 
-0.00106541 -0.00607313 0.0256582 -0.0129699 -0.00979683 0.0242459 -0.00544814 -0.0124179 0.0191161 
-0.0132991 -0.0192112 0.0285839 -0.0110047 -0.00304412 0.0190507 -0.0167049 -0.00188912 0.0216898 
-0.00511725 -0.017558 0.0327788 -0.00132304 -0.0193259 0.0246692 -0.0124471 -0.0220291 0.0194881 
-0.0156153 -0.0257757 0.0194354 -0.0178182 -0.0208485 0.0276994 -0.00776233 -0.0206538 0.0195771 
-0.0168814 -0.001974 0.0266155 -0.00926876 -0.0275457 0.0255797 -0.00148341 -0.0149874 0.021699 
-0.0132256 -0.0142032 0.0272552 -0.00493679 -0.00835411 0.0217762 -0.0285267 -0.0253315 0.0231786 
-0.00251364 -0.019627 0.0197799 -0.0148391 -0.00619833 0.0284857 -0.0157293 -0.0105756 0.0324935 
[...]
POINT_DATA 1500
FIELD FieldData 8
id 1 1500 int
1330 622 1277 1283 1077 297 213 156 901 
1146 458 1182 834 1337 7 1332 743 1329 
1327 1154 1349 678 1048 1464 327 551 773 
389 88 754 1051 230 520 1374 251 898 
466 1407 420 1072 160 993 739 885 1417 
1071 166 73 605 578 683 190 733 1133 
529 214 1381 905 1318 135 263 788 1395 
225 405 358 388 931 534 951 76 1007 
862 106 1089 262 522 1004 403 1487 292 
787 1256 714 768 1031 977 493 751 310 
719 625 273 269 653 908 638 1441 356 
1110 737 1003 1167 302 802 196 1223 1402 
1115 821 1189 363 738 275 353 1237 1052 
1150 439 396 1288 456 554 1232 1366 447 
547 1123 909 971 1045 920 1274 1169 195 
997 851 723 713 936 1340 1286 303 406 
48 541 1258 1363 431 188 1228 857 677 
1403 1419 979 1444 218 1465 922 722 274 
999 986 53 422 1171 497 350 1324 1307 
1265 684 317 379 516 649 440 492 530 
1475 1148 382 981 944 199 178 568 280 
1439 732 1425 1350 1134 521 1164 687 480 
899 1103 870 1351 469 1001 873 1257 203 
1054 502 366 672 1221 1080 852 1200 656 
584 912 859 646 329 1125 393 590 1268 
1076 666 580 1058 774 923 526 950 523 
709 1355 585 486 311 29 198 339 1447 
121 56 370 540 830 1269 1404 68 1034 
336 1380 94 1184 701 373 924 681 1166 
587 132 1075 949 165 1023 138 545 264 
647 1299 882 820 1180 136 1063 1347 1105 
1352 224 1310 548 1107 960 1057 1354 1405 
609 92 1285 1159 454 1067 413 49 247 
902 1383 1039 438 1392 504 1140 728 416 
361 763 775 1215 481 1109 874 467 1364 
443 398 1412 889 1156 9 863 1097 604 
478 1423 140 715 154 1036 748 792 973 
485 1017 1262 489 750 1336 351 1275 453 
1346 1203 1044 956 1198 399 1295 85 752 
335 255 1033 212 1207 1178 704 838 867 
670 512 1174 1009 1272 483 1365 301 372 
1317 295 801 959 753 1139 822 162 235 
621 1435 1253 82 340 457 266 673 289 
189 629 696 173 948 70 966 1116 1427 
829 720 765 1426 661 1214 164 799 1220 
1481 643 952 637 1136 1345 61 33 131 
1021 109 1261 1356 1113 1320 894 1367 871 
980 1254 1142 702 1155 479 1202 1368 122 
806 976 402 75 805 1495 1377 320 1424 
345 1433 1216 1305 1500 1188 893 1313 139 
915 390 655 1092 1117 718 63 1106 1065 
228 783 565 734 1311 570 1369 236 955 
201 1292 1086 180 286 474 1255 240 19 
644 1373 318 615 1143 354 253 465 836 
888 877 543 1357 881 1391 636 1206 205 
25 119 204 926 1158 892 503 211 532 
81 1082 150 1138 1046 1468 562 861 418 
941 1474 848 1069 1011 1454 1416 1488 124 
113 482 66 1401 279 28 291 170 607 
706 586 854 1179 505 509 1053 619 1469 
1132 1124 62 602 550 969 712 27 790 
488 97 927 779 380 1455 1360 685 942 
314 1400 34 581 495 1064 245 669 883 
232 1463 599 1477 1245 781 1406 142 697 
1177 1372 791 328 1448 241 107 1025 221 
1296 772 780 1370 441 634 8 99 553 
300 1127 1194 954 65 115 633 434 3 
259 1414 40 151 167 1168 782 1006 539 
556 112 472 601 582 766 596 78 657 
664 400 1015 215 935 158 1483 635 299 
612 1037 695 442 1467 1445 426 282 1101 
430 1002 362 511 1238 995 1144 1298 946 
652 385 1450 268 79 828 1413 566 576 
1421 270 352 880 537 708 309 994 127 
1084 1070 1379 508 496 659 1230 574 645 
276 1437 1470 304 525 819 864 184 13 
252 597 258 872 1219 1328 853 43 209 
1322 395 1234 191 55 1446 961 796 484 
155 197 826 1289 194 1205 401 840 953 
449 608 305 32 147 1386 842 281 1309 
1013 322 513 770 682 680 589 815 868 
1119 1394 163 1492 12 797 1282 1247 777 
756 1130 925 490 769 1149 639 662 1457 
1278 1175 803 974 219 1038 975 208 760 
432 811 1151 1135 1243 613 1102 660 1476 
114 903 460 813 1161 918 1486 1152 651 
1172 1226 330 355 1061 494 386 559 808 
1008 555 1415 620 717 6 1059 22 298 
312 323 700 812 459 588 1498 257 1375 
348 761 1111 626 600 104 1060 186 344 
1104 37 200 1479 1409 1068 368 663 561 
825 498 745 1209 1422 227 1270 277 875 
444 816 176 1212 1147 145 1496 1411 759 
967 957 89 572 1218 461 1012 937 1121 
746 1382 1047 795 1279 895 172 869 1096 
1043 71 876 77 832 1091 1165 1302 334 
824 20 577 287 1041 514 606 1050 128 
35 220 962 146 1066 1029 552 272 1183 
1462 567 152 1408 425 628 1436 563 1359 
102 1160 546 267 798 1163 316 996 1249 
991 1294 1185 246 1456 1170 1297 558 376 
988 238 710 452 849 762 930 817 1499 
1430 1301 507 1461 1196 1342 429 1145 1241 
1325 185 4 758 742 884 1443 1266 378 
865 1162 793 747 193 958 506 285 679 
1233 1264 343 985 153 182 725 1126 69 
468 1040 1195 947 575 31 60 499 921 
116 44 1246 411 404 1112 571 1460 705 
1181 364 1442 858 18 1276 917 689 658 
1315 1490 359 1049 1343 549 1459 1333 668 
968 296 1236 716 906 771 38 1210 137 
1438 83 749 1429 417 1090 1250 891 740 
847 1118 237 249 1440 93 789 1326 1491 
464 1271 126 181 1252 391 831 408 1362 
1028 642 846 108 1489 250 1225 640 387 
907 731 711 435 375 1293 1078 428 890 
1229 688 1094 614 1431 860 517 1453 699 
989 1224 1042 627 904 1240 54 374 84 
123 1371 654 583 1197 1087 242 308 407 
423 30 46 736 1260 1281 1190 939 650 
1231 784 984 735 1019 1420 1376 427 776 
248 1344 1191 306 192 1314 1449 1263 519 
1083 624 886 542 648 243 617 1024 1335 
1081 1018 294 369 265 410 47 134 978 
727 841 1434 1308 324 1393 667 1319 929 
879 446 603 1187 1026 1397 1273 80 618 
143 560 338 91 331 103 1267 1120 691 
23 96 41 111 341 177 623 1016 671 
964 436 809 133 1334 1259 52 233 524 
381 933 1312 1385 686 229 729 222 74 
1022 557 1199 321 293 1451 1217 450 1098 
59 57 367 357 1122 919 17 1361 1137 
1304 51 1153 730 216 1192 1493 87 45 
1062 346 333 527 707 983 630 326 703 
1213 244 206 202 998 982 1480 105 938 
850 254 24 818 1331 86 1000 1389 1114 
394 445 1494 392 1099 1471 2 1399 169 
261 239 100 579 1032 1020 1378 475 437 
290 1239 487 1073 721 1410 476 14 698 
1176 866 1428 377 26 1353 90 1204 800 
477 764 593 598 226 283 837 125 910 
117 767 72 1227 148 1452 1396 10 217 
1035 307 313 231 360 433 594 611 210 
665 531 757 1248 1316 1093 1108 1014 744 
913 676 785 415 694 510 965 1085 1398 
533 1074 1242 21 58 491 1244 1201 1291 
943 807 1387 1079 810 141 1010 1251 724 
349 814 36 15 347 260 1358 823 1478 
573 1321 1390 161 536 900 120 1290 419 
1466 856 1027 149 130 64 1388 187 692 
896 515 690 972 794 110 5 98 11 
409 1131 451 1193 674 1157 384 616 887 
726 284 462 455 1497 342 448 804 421 
383 778 315 337 675 424 1306 1056 928 
591 916 945 1 844 1030 827 631 855 
1280 1432 1287 987 1208 1303 1235 288 1095 
471 1100 632 278 412 595 1284 1484 129 
319 786 168 365 693 1141 1323 1129 183 
538 39 1418 397 414 1339 1341 934 914 
1348 897 564 473 518 1055 990 940 332 
42 610 932 1338 992 1088 207 1128 256 
371 271 963 50 159 843 592 175 835 
463 500 67 95 911 641 470 101 845 
970 325 1482 544 1222 535 1485 833 157 
171 144 1211 1186 174 1384 1005 1458 1472 
1300 223 569 179 118 755 1473 741 16 
839 528 501 878 1173 234 
type 1 1500 int
1 1 1 1 1 1 1 1 1 
1 1 1 1 1 1 1 1 1 
1 1 1 1 1 1 1 1 1 
1 1 1 1 1 1 1 1 1 
1 1 1 1 1 1 1 1 1 
1 1 1 1 1 1 1 1 1 
1 1 1 1 1 1 1 1 1 
1 1 1 1 1 1 1 1 1 
1 1 1 1 1 1 1 1 1 
1 1 1 1 1 1 1 1 1 
1 1 1 1 1 1 1 1 1 
1 1 1 1 1 1 1 1 1 
1 1 1 1 1 1 1 1 1 
1 1 1 1 1 1 1 1 1 
1 1 1 1 1 1 1 1 1 
1 1 1 1 1 1 1 1 1 
1 1 1 1 1 1 1 1 1 
1 1 1 1 1 1 1 1 1 
1 1 1 1 1 1 1 1 1 
1 1 1 1 1 1 1 1 1 
1 1 1 1 1 1 1 1 1 
1 1 1 1 1 1 1 1 1 
1 1 1 1 1 1 1 1 1 
1 1 1 1 1 1 1 1 1 
1 1 1 1 1 1 1 1 1 
1 1 1 1 1 1 1 1 1 
1 1 1 1 1 1 1 1 1 
1 1 1 1 1 1 1 1 1 
1 1 1 1 1 1 1 1 1 
1 1 1 1 1 1 1 1 1 
1 1 1 1 1 1 1 1 1 
1 1 1 1 1 1 1 1 1 
1 1 1 1 1 1 1 1 1 
1 1 1 1 1 1 1 1 1 
1 1 1 1 1 1 1 1 1 
1 1 1 1 1 1 1 1 1 
1 1 1 1 1 1 1 1 1 
1 1 1 1 1 1 1 1 1 
1 1 1 1 1 1 1 1 1 
1 1 1 1 1 1 1 1 1 
1 1 1 1 1 1 1 1 1 
1 1 1 1 1 1 1 1 1 
1 1 1 1 1 1 1 1 1 
1 1 1 1 1 1 1 1 1 
1 1 1 1 1 1 1 1 1 
1 1 1 1 1 1 1 1 1 
1 1 1 1 1 1 1 1 1 
1 1 1 1 1 1 1 1 1 
1 1 1 1 1 1 1 1 1 
1 1 1 1 1 1 1 1 1 
1 1 1 1 1 1 1 1 1 
1 1 1 1 1 1 1 1 1 
1 1 1 1 1 1 1 1 1 
1 1 1 1 1 1 1 1 1 
1 1 1 1 1 1 1 1 1 
1 1 1 1 1 1 1 1 1 
1 1 1 1 1 1 1 1 1 
1 1 1 1 1 1 1 1 1 
1 1 1 1 1 1 1 1 1 
1 1 1 1 1 1 1 1 1 
1 1 1 1 1 1 1 1 1 
1 1 1 1 1 1 1 1 1 
1 1 1 1 1 1 1 1 1 
1 1 1 1 1 1 1 1 1 
1 1 1 1 1 1 1 1 1 
1 1 1 1 1 1 1 1 1 
1 1 1 1 1 1 1 1 1 
1 1 1 1 1 1 1 1 1 
1 1 1 1 1 1 1 1 1 
1 1 1 1 1 1 1 1 1 
1 1 1 1 1 1 1 1 1 
1 1 1 1 1 1 1 1 1 
1 1 1 1 1 1 1 1 1 
1 1 1 1 1 1 1 1 1 
1 1 1 1 1 1 1 1 1 
1 1 1 1 1 1 1 1 1 
1 1 1 1 1 1 1 1 1 
1 1 1 1 1 1 1 1 1 
1 1 1 1 1 1 1 1 1 
1 1 1 1 1 1 1 1 1 
1 1 1 1 1 1 1 1 1 
1 1 1 1 1 1 1 1 1 
1 1 1 1 1 1 1 1 1 
1 1 1 1 1 1 1 1 1 
1 1 1 1 1 1 1 1 1 
1 1 1 1 1 1 1 1 1 
1 1 1 1 1 1 1 1 1 
1 1 1 1 1 1 1 1 1 
1 1 1 1 1 1 1 1 1 
1 1 1 1 1 1 1 1 1 
1 1 1 1 1 1 1 1 1 
1 1 1 1 1 1 1 1 1 
1 1 1 1 1 1 1 1 1 
1 1 1 1 1 1 1 1 1 
1 1 1 1 1 1 1 1 1 
1 1 1 1 1 1 1 1 1 
1 1 1 1 1 1 1 1 1 
1 1 1 1 1 1 1 1 1 
1 1 1 1 1 1 1 1 1 
1 1 1 1 1 1 1 1 1 
1 1 1 1 1 1 1 1 1 
1 1 1 1 1 1 1 1 1 
1 1 1 1 1 1 1 1 1 
1 1 1 1 1 1 1 1 1 
1 1 1 1 1 1 1 1 1 
1 1 1 1 1 1 1 1 1 
1 1 1 1 1 1 1 1 1 
1 1 1 1 1 1 1 1 1 
1 1 1 1 1 1 1 1 1 
1 1 1 1 1 1 1 1 1 
1 1 1 1 1 1 1 1 1 
1 1 1 1 1 1 1 1 1 
1 1 1 1 1 1 1 1 1 
1 1 1 1 1 1 1 1 1 
1 1 1 1 1 1 1 1 1 
1 1 1 1 1 1 1 1 1 
1 1 1 1 1 1 1 1 1 
1 1 1 1 1 1 1 1 1 
1 1 1 1 1 1 1 1 1 
1 1 1 1 1 1 1 1 1 
1 1 1 1 1 1 1 1 1 
1 1 1 1 1 1 1 1 1 
1 1 1 1 1 1 1 1 1 
1 1 1 1 1 1 1 1 1 
1 1 1 1 1 1 1 1 1 
1 1 1 1 1 1 1 1 1 
1 1 1 1 1 1 1 1 1 
1 1 1 1 1 1 1 1 1 
1 1 1 1 1 1 1 1 1 
1 1 1 1 1 1 1 1 1 
1 1 1 1 1 1 1 1 1 
1 1 1 1 1 1 1 1 1 
1 1 1 1 1 1 1 1 1 
1 1 1 1 1 1 1 1 1 
1 1 1 1 1 1 1 1 1 
1 1 1 1 1 1 1 1 1 
1 1 1 1 1 1 1 1 1 
1 1 1 1 1 1 1 1 1 
1 1 1 1 1 1 1 1 1 
1 1 1 1 1 1 1 1 1 
1 1 1 1 1 1 1 1 1 
1 1 1 1 1 1 1 1 1 
1 1 1 1 1 1 1 1 1 
1 1 1 1 1 1 1 1 1 
1 1 1 1 1 1 1 1 1 
1 1 1 1 1 1 1 1 1 
1 1 1 1 1 1 1 1 1 
1 1 1 1 1 1 1 1 1 
1 1 1 1 1 1 1 1 1 
1 1 1 1 1 1 1 1 1 
1 1 1 1 1 1 1 1 1 
1 1 1 1 1 1 1 1 1 
1 1 1 1 1 1 1 1 1 
1 1 1 1 1 1 1 1 1 
1 1 1 1 1 1 1 1 1 
1 1 1 1 1 1 1 1 1 
1 1 1 1 1 1 1 1 1 
1 1 1 1 1 1 1 1 1 
1 1 1 1 1 1 1 1 1 
1 1 1 1 1 1 1 1 1 
1 1 1 1 1 1 1 1 1 
1 1 1 1 1 1 1 1 1 
1 1 1 1 1 1 1 1 1 
1 1 1 1 1 1 1 1 1 
1 1 1 1 1 1 1 1 1 
1 1 1 1 1 1 1 1 1 
1 1 1 1 1 1 
mass 1 1500 double
7.40613e-05 7.40613e-05 7.40613e-05 7.40613e-05 7.40613e-05 7.40613e-05 7.40613e-05 7.40613e-05 7.40613e-05 
7.40613e-05 7.40613e-05 7.40613e-05 7.40613e-05 7.40613e-05 7.40613e-05 7.40613e-05 7.40613e-05 7.40613e-05 
7.40613e-05 7.40613e-05 7.40613e-05 7.40613e-05 7.40613e-05 7.40613e-05 7.40613e-05 7.40613e-05 7.40613e-05 
7.40613e-05 7.40613e-05 7.40613e-05 7.40613e-05 7.40613e-05 7.40613e-05 7.40613e-05 7.40613e-05 7.40613e-05 
7.40613e-05 7.40613e-05 7.40613e-05 7.40613e-05 7.40613e-05 7.40613e-05 7.40613e-05 7.40613e-05 7.40613e-05 
7.40613e-05 7.40613e-05 7.40613e-05 7.40613e-05 7.40613e-05 7.40613e-05 7.40613e-05 7.40613e-05 7.40613e-05 
7.40613e-05 7.40613e-05 7.40613e-05 7.40613e-05 7.40613e-05 7.40613e-05 7.40613e-05 7.40613e-05 7.40613e-05 
7.40613e-05 7.40613e-05 7.40613e-05 7.40613e-05 7.40613e-05 7.40613e-05 7.40613e-05 7.40613e-05 7.40613e-05 
7.40613e-05 7.40613e-05 7.40613e-05 7.40613e-05 7.40613e-05 7.40613e-05 7.40613e-05 7.40613e-05 7.40613e-05 
7.40613e-05 7.40613e-05 7.40613e-05 7.40613e-05 7.40613e-05 7.40613e-05 7.40613e-05 7.40613e-05 7.40613e-05 
7.40613e-05 7.40613e-05 7.40613e-05 7.40613e-05 7.40613e-05 7.40613e-05 7.40613e-05 7.40613e-05 7.40613e-05 
7.40613e-05 7.40613e-05 7.40613e-05 7.40613e-05 7.40613e-05 7.40613e-05 7.40613e-05 7.40613e-05 7.40613e-05 
7.40613e-05 7.40613e-05 7.40613e-05 7.40613e-05 7.40613e-05 7.40613e-05 7.40613e-05 7.40613e-05 7.40613e-05 
7.40613e-05 7.40613e-05 7.40613e-05 7.40613e-05 7.40613e-05 7.40613e-05 7.40613e-05 7.40613e-05 7.40613e-05 
7.40613e-05 7.40613e-05 7.40613e-05 7.40613e-05 7.40613e-05 7.40613e-05 7.40613e-05 7.40613e-05 7.40613e-05 
7.40613e-05 7.40613e-05 7.40613e-05 7.40613e-05 7.40613e-05 7.40613e-05 7.40613e-05 7.40613e-05 7.40613e-05 
7.40613e-05 7.40613e-05 7.40613e-05 7.40613e-05 7.40613e-05 7.40613e-05 7.40613e-05 7.40613e-05 7.40613e-05 
7.40613e-05 7.40613e-05 7.40613e-05 7.40613e-05 7.40613e-05 7.40613e-05 7.40613e-05 7.40613e-05 7.40613e-05 
7.40613e-05 7.40613e-05 7.40613e-05 7.40613e-05 7.40613e-05 7.40613e-05 7.40613e-05 7.40613e-05 7.40613e-05 
7.40613e-05 7.40613e-05 7.40613e-05 7.40613e-05 7.40613e-05 7.40613e-05 7.40613e-05 7.40613e-05 7.40613e-05 
7.40613e-05 7.40613e-05 7.40613e-05 7.40613e-05 7.40613e-05 7.40613e-05 7.40613e-05 7.40613e-05 7.40613e-05 
7.40613e-05 7.40613e-05 7.40613e-05 7.40613e-05 7.40613e-05 7.40613e-05 7.40613e-05 7.40613e-05 7.40613e-05 
7.40613e-05 7.40613e-05 7.40613e-05 7.40613e-05 7.40613e-05 7.40613e-05 7.40613e-05 7.40613e-05 7.40613e-05 
7.40613e-05 7.40613e-05 7.40613e-05 7.40613e-05 7.40613e-05 7.40613e-05 7.40613e-05 7.40613e-05 7.40613e-05 
7.40613e-05 7.40613e-05 7.40613e-05 7.40613e-05 7.40613e-05 7.40613e-05 7.40613e-05 7.40613e-05 7.40613e-05 
7.40613e-05 7.40613e-05 7.40613e-05 7.40613e-05 7.40613e-05 7.40613e-05 7.40613e-05 7.40613e-05 7.40613e-05 
7.40613e-05 7.40613e-05 7.40613e-05 7.40613e-05 7.40613e-05 7.40613e-05 7.40613e-05 7.40613e-05 7.40613e-05 
7.40613e-05 7.40613e-05 7.40613e-05 7.40613e-05 7.40613e-05 7.40613e-05 7.40613e-05 7.40613e-05 7.40613e-05 
7.40613e-05 7.40613e-05 7.40613e-05 7.40613e-05 7.40613e-05 7.40613e-05 7.40613e-05 7.40613e-05 7.40613e-05 
7.40613e-05 7.40613e-05 7.40613e-05 7.40613e-05 7.40613e-05 7.40613e-05 7.40613e-05 7.40613e-05 7.40613e-05 
7.40613e-05 7.40613e-05 7.40613e-05 7.40613e-05 7.40613e-05 7.40613e-05 7.40613e-05 7.40613e-05 7.40613e-05 
7.40613e-05 7.40613e-05 7.40613e-05 7.40613e-05 7.40613e-05 7.40613e-05 7.40613e-05 7.40613e-05 7.40613e-05 
7.40613e-05 7.40613e-05 7.40613e-05 7.40613e-05 7.40613e-05 7.40613e-05 7.40613e-05 7.40613e-05 7.40613e-05 
7.40613e-05 7.40613e-05 7.40613e-05 7.40613e-05 7.40613e-05 7.40613e-05 7.40613e-05 7.40613e-05 7.40613e-05 
7.40613e-05 7.40613e-05 7.40613e-05 7.40613e-05 7.40613e-05 7.40613e-05 7.40613e-05 7.40613e-05 7.40613e-05 
7.40613e-05 7.40613e-05 7.40613e-05 7.40613e-05 7.40613e-05 7.40613e-05 7.40613e-05 7.40613e-05 7.40613e-05 
7.40613e-05 7.40613e-05 7.40613e-05 7.40613e-05 7.40613e-05 7.40613e-05 7.40613e-05 7.40613e-05 7.40613e-05 
7.40613e-05 7.40613e-05 7.40613e-05 7.40613e-05 7.40613e-05 7.40613e-05 7.40613e-05 7.40613e-05 7.40613e-05 
7.40613e-05 7.40613e-05 7.40613e-05 7.40613e-05 7.40613e-05 7.40613e-05 7.40613e-05 7.40613e-05 7.40613e-05 
7.40613e-05 7.40613e-05 7.40613e-05 7.40613e-05 7.40613e-05 7.40613e-05 7.40613e-05 7.40613e-05 7.40613e-05 
7.40613e-05 7.40613e-05 7.40613e-05 7.40613e-05 7.40613e-05 7.40613e-05 7.40613e-05 7.40613e-05 7.40613e-05 
7.40613e-05 7.40613e-05 7.40613e-05 7.40613e-05 7.40613e-05 7.40613e-05 7.40613e-05 7.40613e-05 7.40613e-05 
7.40613e-05 7.40613e-05 7.40613e-05 7.40613e-05 7.40613e-05 7.40613e-05 7.40613e-05 7.40613e-05 7.40613e-05 
7.40613e-05 7.40613e-05 7.40613e-05 7.40613e-05 7.40613e-05 7.40613e-05 7.40613e-05 7.40613e-05 7.40613e-05 
7.40613e-05 7.40613e-05 7.40613e-05 7.40613e-05 7.40613e-05 7.40613e-05 7.40613e-05 7.40613e-05 7.40613e-05 
7.40613e-05 7.40613e-05 7.40613e-05 7.40613e-05 7.40613e-05 7.40613e-05 7.40613e-05 7.40613e-05 7.40613e-05 
7.40613e-05 7.40613e-05 7.40613e-05 7.40613e-05 7.40613e-05 7.40613e-05 7.40613e-05 7.40613e-05 7.40613e-05 
7.40613e-05 7.40613e-05 7.40613e-05 7.40613e-05 7.40613e-05 7.40613e-05 7.40613e-05 7.40613e-05 7.40613e-05 
7.40613e-05 7.40613e-05 7.40613e-05 7.40613e-05 7.40613e-05 7.40613e-05 7.40613e-05 7.40613e-05 7.40613e-05 
7.40613e-05 7.40613e-05 7.40613e-05 7.40613e-05 7.40613e-05 7.40613e-05 7.40613e-05 7.40613e-05 7.40613e-05 
7.40613e-05 7.40613e-05 7.40613e-05 7.40613e-05 7.40613e-05 7.40613e-05 7.40613e-05 7.40613e-05 7.40613e-05 
7.40613e-05 7.40613e-05 7.40613e-05 7.40613e-05 7.40613e-05 7.40613e-05 7.40613e-05 7.40613e-05 7.40613e-05 
7.40613e-05 7.40613e-05 7.40613e-05 7.40613e-05 7.40613e-05 7.40613e-05 7.40613e-05 7.40613e-05 7.40613e-05 
7.40613e-05 7.40613e-05 7.40613e-05 7.40613e-05 7.40613e-05 7.40613e-05 7.40613e-05 7.40613e-05 7.40613e-05 
7.40613e-05 7.40613e-05 7.40613e-05 7.40613e-05 7.40613e-05 7.40613e-05 7.40613e-05 7.40613e-05 7.40613e-05 
7.40613e-05 7.40613e-05 7.40613e-05 7.40613e-05 7.40613e-05 7.40613e-05 7.40613e-05 7.40613e-05 7.40613e-05 
7.40613e-05 7.40613e-05 7.40613e-05 7.40613e-05 7.40613e-05 7.40613e-05 7.40613e-05 7.40613e-05 7.40613e-05 
7.40613e-05 7.40613e-05 7.40613e-05 7.40613e-05 7.40613e-05 7.40613e-05 7.40613e-05 7.40613e-05 7.40613e-05 
7.40613e-05 7.40613e-05 7.40613e-05 7.40613e-05 7.40613e-05 7.40613e-05 7.40613e-05 7.40613e-05 7.40613e-05 
7.40613e-05 7.40613e-05 7.40613e-05 7.40613e-05 7.40613e-05 7.40613e-05 7.40613e-05 7.40613e-05 7.40613e-05 
7.40613e-05 7.40613e-05 7.40613e-05 7.40613e-05 7.40613e-05 7.40613e-05 7.40613e-05 7.40613e-05 7.40613e-05 
7.40613e-05 7.40613e-05 7.40613e-05 7.40613e-05 7.40613e-05 7.40613e-05 7.40613e-05 7.40613e-05 7.40613e-05 
7.40613e-05 7.40613e-05 7.40613e-05 7.40613e-05 7.40613e-05 7.40613e-05 7.40613e-05 7.40613e-05 7.40613e-05 
7.40613e-05 7.40613e-05 7.40613e-05 7.40613e-05 7.40613e-05 7.40613e-05 7.40613e-05 7.40613e-05 7.40613e-05 
7.40613e-05 7.40613e-05 7.40613e-05 7.40613e-05 7.40613e-05 7.40613e-05 7.40613e-05 7.40613e-05 7.40613e-05 
7.40613e-05 7.40613e-05 7.40613e-05 7.40613e-05 7.40613e-05 7.40613e-05 7.40613e-05 7.40613e-05 7.40613e-05 
7.40613e-05 7.40613e-05 7.40613e-05 7.40613e-05 7.40613e-05 7.40613e-05 7.40613e-05 7.40613e-05 7.40613e-05 
7.40613e-05 7.40613e-05 7.40613e-05 7.40613e-05 7.40613e-05 7.40613e-05 7.40613e-05 7.40613e-05 7.40613e-05 
7.40613e-05 7.40613e-05 7.40613e-05 7.40613e-05 7.40613e-05 7.40613e-05 7.40613e-05 7.40613e-05 7.40613e-05 
7.40613e-05 7.40613e-05 7.40613e-05 7.40613e-05 7.40613e-05 7.40613e-05 7.40613e-05 7.40613e-05 7.40613e-05 
7.40613e-05 7.40613e-05 7.40613e-05 7.40613e-05 7.40613e-05 7.40613e-05 7.40613e-05 7.40613e-05 7.40613e-05 
7.40613e-05 7.40613e-05 7.40613e-05 7.40613e-05 7.40613e-05 7.40613e-05 7.40613e-05 7.40613e-05 7.40613e-05 
7.40613e-05 7.40613e-05 7.40613e-05 7.40613e-05 7.40613e-05 7.40613e-05 7.40613e-05 7.40613e-05 7.40613e-05 
7.40613e-05 7.40613e-05 7.40613e-05 7.40613e-05 7.40613e-05 7.40613e-05 7.40613e-05 7.40613e-05 7.40613e-05 
7.40613e-05 7.40613e-05 7.40613e-05 7.40613e-05 7.40613e-05 7.40613e-05 7.40613e-05 7.40613e-05 7.40613e-05 
7.40613e-05 7.40613e-05 7.40613e-05 7.40613e-05 7.40613e-05 7.40613e-05 7.40613e-05 7.40613e-05 7.40613e-05 
7.40613e-05 7.40613e-05 7.40613e-05 7.40613e-05 7.40613e-05 7.40613e-05 7.40613e-05 7.40613e-05 7.40613e-05 
7.40613e-05 7.40613e-05 7.40613e-05 7.40613e-05 7.40613e-05 7.40613e-05 7.40613e-05 7.40613e-05 7.40613e-05 
7.40613e-05 7.40613e-05 7.40613e-05 7.40613e-05 7.40613e-05 7.40613e-05 7.40613e-05 7.40613e-05 7.40613e-05 
7.40613e-05 7.40613e-05 7.40613e-05 7.40613e-05 7.40613e-05 7.40613e-05 7.40613e-05 7.40613e-05 7.40613e-05 
7.40613e-05 7.40613e-05 7.40613e-05 7.40613e-05 7.40613e-05 7.40613e-05 7.40613e-05 7.40613e-05 7.40613e-05 
7.40613e-05 7.40613e-05 7.40613e-05 7.40613e-05 7.40613e-05 7.40613e-05 7.40613e-05 7.40613e-05 7.40613e-05 
7.40613e-05 7.40613e-05 7.40613e-05 7.40613e-05 7.40613e-05 7.40613e-05 7.40613e-05 7.40613e-05 7.40613e-05 
7.40613e-05 7.40613e-05 7.40613e-05 7.40613e-05 7.40613e-05 7.40613e-05 7.40613e-05 7.40613e-05 7.40613e-05 
7.40613e-05 7.40613e-05 7.40613e-05 7.40613e-05 7.40613e-05 7.40613e-05 7.40613e-05 7.40613e-05 7.40613e-05 
7.40613e-05 7.40613e-05 7.40613e-05 7.40613e-05 7.40613e-05 7.40613e-05 7.40613e-05 7.40613e-05 7.40613e-05 
7.40613e-05 7.40613e-05 7.40613e-05 7.40613e-05 7.40613e-05 7.40613e-05 7.40613e-05 7.40613e-05 7.40613e-05 
7.40613e-05 7.40613e-05 7.40613e-05 7.40613e-05 7.40613e-05 7.40613e-05 7.40613e-05 7.40613e-05 7.40613e-05 
7.40613e-05 7.40613e-05 7.40613e-05 7.40613e-05 7.40613e-05 7.40613e-05 7.40613e-05 7.40613e-05 7.40613e-05 
7.40613e-05 7.40613e-05 7.40613e-05 7.40613e-05 7.40613e-05 7.40613e-05 7.40613e-05 7.40613e-05 7.40613e-05 
7.40613e-05 7.40613e-05 7.40613e-05 7.40613e-05 7.40613e-05 7.40613e-05 7.40613e-05 7.40613e-05 7.40613e-05 
7.40613e-05 7.40613e-05 7.40613e-05 7.40613e-05 7.40613e-05 7.40613e-05 7.40613e-05 7.40613e-05 7.40613e-05 
7.40613e-05 7.40613e-05 7.40613e-05 7.40613e-05 7.40613e-05 7.40613e-05 7.40613e-05 7.40613e-05 7.40613e-05 