ITEM: TIMESTEP
45000
ITEM: NUMBER OF ATOMS
2487
ITEM: BOX BOUNDS ff ff ff
-0.005905 0.167905
-0.000656 0.011154
-0.005905 0.167905
ITEM: ATOMS id type x y z radius vx vy vz density 
2317 1 0.014297 0.000827345 0.001071 0.000423 0 2.23961 0 2650 
2078 1 0.019324 0.00017007 0.000953 0.000116 0 -7 0 2650 
1188 1 0.020639 0.00042507 0.000927 0.000116 0 -7 0 2650 
820 1 0.110174 0.00081007 0.001096 0.000656 0 -7 0 2650 
1756 1 0.004144 0.00097807 0.000832 0.000423 0 -7 0 2650 
65 1 0.027038 0.00129007 0.001133 0.000116 0 -7 0 2650 
1551 1 0.085492 0.00103154 0.000953165 0.000656 0.551287 1.97103 -0.133068 2650 
84 1 0.108185 0.00100946 0.001133 0.000656 0 2.23968 0 2650 
2403 1 0.006528 0.000803669 0.001419 0.000423 0 2.23961 0 2650 
1432 1 0.016035 0.000828626 0.001465 0.000423 0 2.23961 0 2650 
2391 1 0.018068 0.00019336 0.001955 4.2e-05 0 2.23757 0 2650 
2340 1 0.031543 0.00047007 0.001662 0.000116 0 -7 0 2650 
692 1 0.038362 0.00025407 0.001808 0.000116 0 -7 0 2650 
213 1 0.044271 0.0006373 0.001469 0.000423 0 2.23963 0 2650 
1974 1 0.073895 0.00051407 0.001874 0.000423 0 -7 0 2650 
886 1 0.083509 0.00042552 0.00158448 0.000423 -1.18665 -6.65445 0.444127 2650 
666 1 0.084295 0.000413828 0.0012245 0.000423 -0.740986 2.34703 0.0764736 2650 
1136 1 0.0940004 0.000610027 0.00162266 0.000423 0.000643196 2.23497 0.0606212 2650 
355 1 0.111145 0.00072607 0.001866 0.000423 0 -7 0 2650 
2142 1 0.126502 0.00138607 0.001576 0.000656 0 -7 0 2650 
1274 1 0.018553 0.00075207 0.002496 0.000423 0 -7 0 2650 
1776 1 0.021661 0.000446399 0.002691 0.000116 0 2.23849 0 2650 
240 1 0.0512829 0.000412736 0.00246901 0.000423 -1.05363 1.69167 -1.49238 2650 
2298 1 0.077914 0.00042507 0.002756 0.000116 0 -7 0 2650 
1138 1 0.101697 0.00082407 0.002616 0.000423 0 -7 0 2650 
1422 1 0.104327 0.00050646 0.002201 0.000116 0 2.23815 0 2650 
652 1 0.10982 0.000576509 0.002424 0.000423 0 2.23961 0 2650 
985 1 0.116858 0.000343819 0.002415 0.000116 0 2.23917 0 2650 
94 1 0.127492 0.000385291 0.002577 0.000116 0 2.23825 0 2650 
1752 1 0.130965 0.00012407 0.002114 4.2e-05 0 -7 0 2650 
1066 1 0.011114 0.00113407 0.002419 0.000116 0 -7 0 2650 
2049 1 0.084987 0.00119707 0.002439 0.000116 0 -7 0 2650 
1664 1 0.158101 0.00130807 0.002099 0.000116 0 -7 0 2650 
1524 1 0.0221225 0.000783483 0.0030407 0.000423 0.0794613 2.08506 -0.0358902 2650 
2182 1 0.0222753 0.000646055 0.00355901 4.2e-05 0.807689 -5.88737 2.67867 2650 
300 1 0.0520722 0.000429857 0.00358704 0.000423 1.26543 0.145525 1.79239 2650 
2089 1 0.055205 0.00050907 0.003367 4.2e-05 0 -7 0 2650 
2459 1 0.074324 0.00069907 0.003444 0.000116 0 -7 0 2650 
840 1 0.080646 0.00019507 0.003038 0.000116 0 -7 0 2650 
2174 1 0.086202 0.000423145 0.003033 0.000116 0 2.23914 0 2650 
254 1 0.0943 0.000352027 0.003434 0.000116 0 2.23815 0 2650 
1208 1 0.0212264 0.000968361 0.0034123 0.000116 -3.89137 0.441907 1.61315 2650 
658 1 0.150029 0.00110307 0.003124 0.000116 0 -7 0 2650 
361 1 0.001268 0.00069207 0.003827 0.000116 0 -7 0 2650 
1370 1 0.042611 0.00016307 0.00377 0.000116 0 -7 0 2650 
2047 1 0.04232 0.00063007 0.003987 0.000423 0 -7 0 2650 
1764 1 0.1048 0.000375865 0.003935 0.000423 0 -0.770019 0 2650 
824 1 0.126159 0.000785411 0.003789 0.000423 0 2.23948 0 2650 
648 1 0.133885 0.00070486 0.00425075 0.000423 0.0838685 2.08917 0.0275692 2650 
1356 1 0.137339 0.000396328 0.00364281 0.000423 1.03828 1.23607 -1.39674 2650 
585 1 0.143349 0.00074607 0.004178 4.2e-05 0 -7 0 2650 
1816 1 0.147786 0.000615542 0.003726 0.000423 0 2.23961 0 2650 
365 1 0.014662 0.00094107 0.003871 0.000656 0 -7 0 2650 
1606 1 0.035843 0.00123607 0.003632 0.000423 0 -7 0 2650 
980 1 0.06939 0.00111696 0.003991 0.000656 0 2.23968 0 2650 
95 1 0.133183 0.000963592 0.00401974 0.000116 -4.06674 0.294724 -1.33682 2650 
1932 1 0.141016 0.000995061 0.003702 0.000656 0 2.23969 0 2650 
892 1 0.0225275 0.000876201 0.00453256 0.000423 1.67877 2.79485 -4.13625 2650 
1679 1 0.042503 0.00080907 0.005076 0.000116 0 -7 0 2650 
2366 1 0.108993 0.00047707 0.004482 0.000423 0 -7 0 2650 
2258 1 0.115895 0.00085507 0.00444 0.000656 0 -7 0 2650 
573 1 0.117631 0.000234122 0.005072 4.2e-05 0 2.23579 0 2650 
1123 1 0.134858 0.000558913 0.004516 0.000423 0 2.23963 0 2650 
916 1 0.136547 0.000446717 0.00470819 0.000423 -1.264 0.226579 1.70038 2650 
345 1 0.146378 0.000649457 0.004988 0.000423 0 2.23961 0 2650 
1883 1 0.158442 0.000376847 0.004964 0.000423 0 1.16804 0 2650 
176 1 0.001438 0.00138907 0.00443 0.000116 0 -7 0 2650 
424 1 0.061715 0.00131407 0.005053 0.000423 0 -7 0 2650 
188 1 0.064849 0.00099607 0.005091 0.000423 0 -7 0 2650 
1277 1 0.075006 0.00135107 0.005099 0.000116 0 -7 0 2650 
1635 1 0.088691 0.00110807 0.004515 0.000423 0 -7 0 2650 
1814 1 0.131875 0.00132107 0.004611 0.000116 0 -7 0 2650 
2050 1 0.0528829 0.00281812 0.0044105 0.000423 -5.51865 -1.1639 -1.19652 2650 
619 1 0.005763 0.00017307 0.005778 0.000116 0 -7 0 2650 
1061 1 0.0218795 0.000580146 0.00521365 0.000423 -1.67877 1.34988 -4.769 2650 
1446 1 0.033447 0.00035207 0.005416 0.000116 0 -7 0 2650 
2305 1 0.06562 0.00081007 0.005446 0.000116 0 -7 0 2650 
1806 1 0.067083 0.000780932 0.005229 0.000423 0 2.23948 0 2650 
1040 1 0.099414 0.000833725 0.005841 0.000423 0 2.23951 0 2650 
1659 1 0.055425 0.00142807 0.005474 0.000116 0 -7 0 2650 
779 1 0.0579009 0.00138008 0.00549848 0.000423 3.85388 4.10676 0.835576 2650 
831 1 0.025684 0.000597625 0.00637 0.000423 0 2.23961 0 2650 
1627 1 0.076565 0.00059407 0.006259 0.000116 0 -7 0 2650 
1820 1 0.09489 0.000348147 0.006065 4.2e-05 0 2.23579 0 2650 
2111 1 0.136698 0.00053507 0.006144 0.000423 0 -7 0 2650 
1410 1 0.150839 0.000169284 0.006562 4.2e-05 0 2.23579 0 2650 
104 1 0.020242 0.00102907 0.006244 0.000423 0 -7 0 2650 
1819 1 0.038335 0.00122407 0.006672 0.000116 0 -7 0 2650 
628 1 0.073589 0.00132207 0.006621 0.000423 0 -7 0 2650 
218 1 0.080191 0.00139407 0.006156 0.000423 0 -7 0 2650 
1963 1 0.083996 0.00120607 0.006477 4.2e-05 0 -7 0 2650 
1852 1 0.154146 0.00142107 0.005953 0.000423 0 -7 0 2650 
1909 1 0.018376 0.000482766 0.007196 0.000423 0 2.23963 0 2650 
2425 1 0.026329 0.000156351 0.006758 0.000116 0 2.23824 0 2650 
1531 1 0.029084 0.000463569 0.007413 0.000423 0 2.23961 0 2650 
1307 1 0.035736 0.000324859 0.006764 0.000116 0 2.23825 0 2650 
2234 1 0.053132 0.000824474 0.007104 0.000423 0 2.23965 0 2650 
352 1 0.10142 0.000720393 0.00744945 0.000423 0.525673 1.56087 -1.83245 2650 
2128 1 0.115633 0.000229266 0.006908 0.000116 0 2.23849 0 2650 
960 1 0.00685 0.00138507 0.006958 0.000116 0 -7 0 2650 
1233 1 0.008632 0.00110107 0.007405 0.000423 0 -7 0 2650 
1810 1 0.043944 0.00126307 0.007253 0.000116 0 -7 0 2650 
575 1 0.113515 0.00105407 0.006827 0.000423 0 -7 0 2650 
1387 1 0.140551 0.00124507 0.007306 0.000423 0 -7 0 2650 
554 1 0.003153 0.000218471 0.007568 4.2e-05 0 2.23579 0 2650 
917 1 0.028712 0.00023822 0.008079 0.000116 0 2.23849 0 2650 
18 1 0.083283 0.000210427 0.007617 0.000116 0 2.23914 0 2650 
1960 1 0.094905 0.000715687 0.008097 0.000423 0 2.23963 0 2650 
1159 1 0.150815 0.000453651 0.007685 0.000423 0 2.23963 0 2650 
706 1 0.0609721 0.000949371 0.00798332 0.000423 0.265473 2.54909 -0.409458 2650 
2093 1 0.133208 0.00141307 0.007989 0.000423 0 -7 0 2650 
990 1 0.103484 0.00190787 0.00817523 0.000116 14.0617 -4.82552 -14.5256 2650 
881 1 0.115508 0.00238906 0.00751668 0.000656 0.207126 -0.626163 -2.2878 2650 
2121 1 0.1556 0.000114715 0.008517 4.2e-05 0 2.23729 0 2650 
1517 1 0.004885 0.000650738 0.008365 0.000423 0 2.23963 0 2650 
2385 1 0.0283805 0.000369575 0.00876911 0.000423 -0.580466 -0.334663 -1.34933 2650 
366 1 0.039524 0.000835345 0.008361 0.000423 0 2.23961 0 2650 
1946 1 0.09912 0.00025707 0.009084 4.2e-05 0 -7 0 2650 
200 1 0.105465 0.000404705 0.00831344 0.000423 0.173526 -1.53418 -0.392437 2650 
1353 1 0.135932 0.000900886 0.00907601 0.000656 0.000357376 2.23698 0.000135862 2650 
1173 1 0.152246 0.00037307 0.009042 4.2e-05 0 -7 0 2650 
967 1 0.045216 0.00134007 0.009072 0.000423 0 -7 0 2650 
337 1 0.078317 0.00141107 0.00903 0.000656 0 -7 0 2650 
508 1 0.101132 0.000960123 0.00845156 0.000656 -0.140937 -6.81803 0.491295 2650 
552 1 0.105383 0.00123973 0.00849887 0.000423 -0.308641 -1.84776 0.698003 2650 
157 1 0.135757 0.00162791 0.00900935 4.2e-05 -1.36172 3.32842 -0.51768 2650 
5 1 0.137396 0.00104707 0.008337 0.000116 0 -7 0 2650 
2264 1 0.159154 0.00102107 0.008714 0.000116 0 -7 0 2650 
165 1 0.041117 0.00068507 0.009537 0.000116 0 -7 0 2650 
404 1 0.117705 0.000819003 0.009716 0.000423 0 2.23948 0 2650 
1881 1 0.119492 0.0005903 0.009255 0.000656 0 1.9941 0 2650 
1412 1 0.145768 0.000181611 0.009397 0.000116 0 2.23825 0 2650 
2197 1 0.0286142 0.000951568 0.00931242 0.000423 0.785163 -4.75157 1.82516 2650 
2015 1 0.098067 0.00099107 0.009838 0.000116 0 -7 0 2650 
1194 1 0.138262 0.00102007 0.009231 0.000116 0 -7 0 2650 
1688 1 0.141376 0.00141307 0.009894 0.000656 0 -7 0 2650 
623 1 0.017229 0.00062993 0.010022 0.000423 0 2.23951 0 2650 
1163 1 0.038505 0.000225702 0.010104 4.2e-05 0 2.23441 0 2650 
2294 1 0.067079 0.000772635 0.010632 0.000423 0 2.23961 0 2650 
177 1 0.102003 0.00054507 0.01063 0.000423 0 -7 0 2650 
1418 1 0.11782 0.00033407 0.010281 0.000116 0 -7 0 2650 
2145 1 0.122214 0.000407884 0.010227 0.000423 0 -6.18239 0 2650 
1335 1 0.129495 0.000303136 0.009967 0.000116 0 2.23849 0 2650 
866 1 0.150967 0.000607228 0.010212 0.000423 0 2.23965 0 2650 
691 1 0.065911 0.00102407 0.010344 0.000423 0 -7 0 2650 
1455 1 0.069014 0.00133207 0.010395 0.000656 0 -7 0 2650 
59 1 0.080657 0.00120107 0.010435 0.000656 0 -7 0 2650 
784 1 0.122883 0.00127007 0.009976 0.000423 0 -7 0 2650 
212 1 0.148551 0.00141907 0.010262 0.000423 0 -7 0 2650 
1134 1 0.141049 0.000111748 0.010696 4.2e-05 0 2.23441 0 2650 
1424 1 0.018389 0.000577468 0.010884 0.000423 0 2.23961 0 2650 
859 1 0.020765 0.000405625 0.011218 0.000423 0 2.80267 0 2650 
2442 1 0.061003 0.000331884 0.011176 0.000116 0 2.23815 0 2650 
1984 1 0.075643 0.000295117 0.010928 0.000116 -9.18398 2.18398 0 2650 
278 1 0.078922 0.000417299 0.011437 0.000116 0 2.23849 0 2650 
396 1 0.0938478 0.000945142 0.0114852 4.2e-05 3.06854 15.3779 17.2229 2650 
1548 1 0.098569 0.00066807 0.010796 0.000116 0 -7 0 2650 
1842 1 0.128813 0.00084607 0.011369 0.000116 0 -7 0 2650 
2046 1 0.131482 0.000417712 0.01085 0.000116 0 2.23917 0 2650 
650 1 0.131566 0.00060907 0.010901 4.2e-05 0 -7 0 2650 
1717 1 0.139512 0.00059407 0.011002 4.2e-05 0 -7 0 2650 
2373 1 0.056707 0.00098507 0.011468 4.2e-05 0 -7 0 2650 
972 1 0.159836 0.00096007 0.011222 0.000423 0 -7 0 2650 
460 1 0.003722 0.000437014 0.011587 0.000423 0 2.23965 0 2650 
1542 1 0.041337 0.000776794 0.011979 0.000423 0 2.23961 0 2650 
219 1 0.04317 0.00023407 0.011985 0.000116 0 -7 0 2650 
1236 1 0.093684 0.000451927 0.0115691 0.000423 -0.0109554 2.22348 0.00667251 2650 
1899 1 0.0941921 0.000614126 0.011639 0.000116 0.370153 -6.78057 0.0510331 2650 
605 1 0.119613 0.00068807 0.011647 0.000116 0 -7 0 2650 
2205 1 0.125225 0.000393604 0.012172 0.000116 0 2.23824 0 2650 
966 1 0.140948 0.00046363 0.011888 0.000116 0 2.23825 0 2650 
2067 1 0.141648 0.000802372 0.011964 0.000423 0 2.23951 0 2650 
1112 1 0.151852 0.000326313 0.012176 4.2e-05 0 2.2374 0 2650 
1886 1 0.024919 0.00140807 0.01171 0.000116 0 -7 0 2650 
2390 1 0.033791 0.00089207 0.012191 0.000116 0 -7 0 2650 
1733 1 0.093161 0.00120007 0.012041 0.000116 0 -7 0 2650 
67 1 0.096194 0.00101332 0.011854 0.000656 0 2.23979 0 2650 
1535 1 0.115142 0.00413662 0.0115548 0.000423 -0.523904 9.84484 5.78676 2650 
197 1 0.001978 0.00072207 0.012413 4.2e-05 0 -7 0 2650 
2495 1 0.004327 0.00052307 0.013029 0.000423 0 -7 0 2650 
597 1 0.052746 0.000521152 0.012275 0.000423 0 2.23948 0 2650 
2040 1 0.0712913 0.000725719 0.0125514 0.000116 -0.83955 4.01824 -1.40681 2650 
738 1 0.077063 0.00061607 0.012617 0.000423 0 -7 0 2650 
294 1 0.083181 0.00066407 0.012766 0.000423 0 -7 0 2650 
2175 1 0.099879 0.00079007 0.012522 0.000116 0 -7 0 2650 
723 1 0.135627 0.000392314 0.012992 0.000116 0 2.23815 0 2650 
1396 1 0.149437 0.000793119 0.012358 0.000423 0 2.23965 0 2650 
895 1 0.045265 0.00099107 0.012269 0.000656 0 -7 0 2650 
489 1 0.047522 0.00141607 0.012445 0.000423 0 -7 0 2650 
1205 1 0.074386 0.00132007 0.012556 0.000116 0 -7 0 2650 
794 1 0.101794 0.00141307 0.012964 0.000656 0 -7 0 2650 
1598 1 0.140638 0.00133007 0.012616 0.000116 0 -7 0 2650 
1601 1 0.129629 0.000134927 0.013243 0.000116 0 2.23815 0 2650 
1284 1 0.020685 0.000800793 0.013078 0.000423 0 2.23963 0 2650 
265 1 0.051603 0.00085207 0.013845 0.000116 0 -7 0 2650 
2120 1 0.056455 0.0007432 0.013138 0.000423 0 2.23961 0 2650 
2436 1 0.084941 0.000229888 0.013757 0.000116 0 2.23815 0 2650 
1385 1 0.09883 0.00062507 0.013076 0.000116 0 -7 0 2650 
1833 1 0.115349 0.000626408 0.013093 0.000423 0 2.23948 0 2650 
1649 1 0.14757 0.000664176 0.013797 0.000423 0 2.23963 0 2650 
1719 1 0.032653 0.00107807 0.013588 0.000423 0 -7 0 2650 
2243 1 0.046104 0.00112272 0.013449 0.000656 0 2.23969 0 2650 
459 1 0.065523 0.00086707 0.013362 0.000116 0 -7 0 2650 
954 1 0.071926 0.00131997 0.013615 0.000656 0.00663409 -6.96921 0.0111166 2650 
2302 1 0.075182 0.00100207 0.013287 0.000423 0 -7 0 2650 
1241 1 0.080082 0.00134407 0.01365 0.000116 0 -7 0 2650 
1348 1 0.132843 0.00112907 0.013729 0.000116 0 -7 0 2650 
1452 1 0.057611 0.000109368 0.014495 0.000116 0 2.88136 0 2650 
1801 1 0.010927 0.000387865 0.014115 0.000423 0 2.64163 0 2650 
27 1 0.030797 0.00058207 0.014592 0.000116 0 -7 0 2650 
48 1 0.035058 0.00057107 0.013916 0.000116 0 -7 0 2650 
610 1 0.039545 0.000511236 0.013854 0.000423 0 2.23951 0 2650 
412 1 0.055062 0.000789271 0.014355 0.000423 0 2.23961 0 2650 
1135 1 0.075772 0.00064307 0.014316 0.000423 0 -7 0 2650 
1458 1 0.142812 0.000299993 0.014111 0.000116 0 2.23914 0 2650 
1257 1 0.1497 0.000368983 0.014178 0.000116 0 2.23824 0 2650 
2097 1 0.157939 0.00050107 0.014523 4.2e-05 0 -7 0 2650 
152 1 0.048531 0.00136607 0.014359 0.000116 0 -7 0 2650 
1931 1 0.102655 0.00140507 0.014112 4.2e-05 0 -7 0 2650 
630 1 0.10425 0.00087707 0.014428 0.000116 0 -7 0 2650 
790 1 0.126922 0.00134507 0.01428 0.000116 0 -7 0 2650 
1790 1 0.014573 0.000445537 0.015413 0.000116 0 2.23914 0 2650 
724 1 0.051952 0.00077807 0.015061 0.000116 0 -7 0 2650 
616 1 0.060796 0.00046107 0.014808 0.000116 0 -7 0 2650 
1207 1 0.0966209 0.000846647 0.0152642 0.000656 -0.0777498 -7.01202 0.0803147 2650 
211 1 0.124407 0.000696168 0.0149 0.000423 0 2.23961 0 2650 
2335 1 0.133151 0.000474446 0.01467 0.000423 0 2.23961 0 2650 
146 1 0.156933 0.000857483 0.015215 0.000656 0 2.23971 0 2650 
1002 1 0.008661 0.00127307 0.015305 0.000116 0 -7 0 2650 
1998 1 0.04633 0.00111407 0.01483 4.2e-05 0 -7 0 2650 
1308 1 0.051143 0.00101207 0.015138 0.000116 0 -7 0 2650 
1484 1 0.053459 0.00127307 0.015164 0.000116 0 -7 0 2650 
1160 1 0.068631 0.00113607 0.014917 0.000423 0 -7 0 2650 
2042 1 0.087817 0.00116507 0.015033 0.000116 0 -7 0 2650 
1673 1 0.014714 0.000473487 0.015963 0.000423 0 2.23961 0 2650 
711 1 0.0251976 0.000706586 0.0160965 0.000423 -0.0664005 -7.03815 0.0555963 2650 
314 1 0.09027 0.000340837 0.016032 0.000116 0 2.23815 0 2650 
783 1 0.124383 0.000804688 0.01615 0.000656 0 2.23969 0 2650 
934 1 0.0258484 0.00108055 0.0155515 0.000423 0.0664005 -6.96185 -0.0555963 2650 
64 1 0.050143 0.00103507 0.015685 0.000116 0 -7 0 2650 
2091 1 0.104905 0.000993479 0.016209 0.000656 0 2.2398 0 2650 
2177 1 0.11132 0.00137407 0.015853 0.000423 0 -7 0 2650 
418 1 0.149012 0.00115007 0.015862 0.000423 0 -7 0 2650 
587 1 0.04028 0.000284117 0.016356 4.2e-05 0 2.23441 0 2650 
1602 1 0.042847 0.000361732 0.016354 0.000116 0 2.23917 0 2650 
1809 1 0.084202 0.000480206 0.016295 0.000423 0 2.23961 0 2650 
1979 1 0.148755 0.00062578 0.016686 0.000423 0 2.23961 0 2650 
1071 1 0.03269 0.00130107 0.016623 0.000116 0 -7 0 2650 
1440 1 0.051411 0.000956987 0.016331 0.000656 0 2.23969 0 2650 
57 1 0.057367 0.00135607 0.016604 0.000423 0 -7 0 2650 
2246 1 0.079128 0.00131107 0.016383 4.2e-05 0 -7 0 2650 
1258 1 0.086891 0.00119207 0.016661 0.000423 0 -7 0 2650 
413 1 0.0166067 0.000598308 0.0173277 0.000656 0.305363 1.62704 -0.652196 2650 
1228 1 0.0547053 0.000343149 0.017649 0.000116 -12.4085 -12.759 19.1385 2650 
198 1 0.073518 0.000656176 0.017315 0.000423 0 2.23961 0 2650 
505 1 0.079356 0.00014007 0.017099 0.000116 0 -7 0 2650 
2474 1 0.083353 0.00031507 0.017263 0.000116 0 -7 0 2650 
1537 1 0.088848 0.000449172 0.017169 0.000423 0 2.23963 0 2650 
290 1 0.090462 0.00056407 0.017451 4.2e-05 0 -7 0 2650 
1255 1 0.10295 0.000612093 0.0173015 0.000423 2.61258 1.7484 -0.751688 2650 
1481 1 0.103413 0.00085007 0.017641 0.000116 0 -7 0 2650 
753 1 0.106579 0.00063507 0.017074 0.000116 0 -7 0 2650 
1589 1 0.13054 0.00073207 0.01743 0.000116 0 -7 0 2650 
897 1 0.133624 0.000400754 0.017326 0.000116 0 2.23914 0 2650 
582 1 0.146387 0.000431187 0.0171907 0.000423 -1.37323 0.61928 -0.0583622 2650 
1739 1 0.08215 0.00121507 0.01734 4.2e-05 0 -7 0 2650 
269 1 0.115081 0.00101307 0.017289 0.000116 0 -7 0 2650 
88 1 0.147248 0.000922732 0.0172273 0.000423 1.90158 -2.82495 0.0808171 2650 
1439 1 0.160999 0.00102707 0.017183 4.2e-05 0 -7 0 2650 
2192 1 0.0326279 0.00196144 0.0174016 0.000656 -6.87493 5.02947 -1.31107 2650 
922 1 0.101367 0.00204727 0.0175084 0.000423 -0.158534 4.66164 -0.876317 2650 
1211 1 0.099148 0.00011958 0.018421 0.000116 0 2.23849 0 2650 
359 1 0.125342 0.000116701 0.018465 0.000116 0 2.23825 0 2650 
600 1 0.0160504 0.000448809 0.0185159 0.000423 -1.33476 0.616903 2.85079 2650 
943 1 0.039469 0.000507419 0.018546 0.000116 0 2.23815 0 2650 
2486 1 0.042163 0.000502602 0.018514 0.000423 0 2.23961 0 2650 
1887 1 0.063275 0.000664176 0.018064 0.000423 0 2.23963 0 2650 
1304 1 0.082867 0.000504517 0.018006 0.000423 0 2.23951 0 2650 
1140 1 0.138466 0.000828417 0.0178802 0.000423 0.0943841 -7.03255 0.333599 2650 
72 1 0.01798 0.00024007 0.019191 0.000116 0 -7 0 2650 
1129 1 0.030015 0.000374409 0.019214 0.000116 0 2.23815 0 2650 
1058 1 0.033484 0.00024107 0.018874 0.000116 0 -7 0 2650 
1271 1 0.034605 0.000690396 0.019326 0.000423 0 2.23951 0 2650 
770 1 0.087399 0.00068207 0.018895 0.000116 0 -7 0 2650 
976 1 0.091588 0.00028007 0.019221 0.000116 0 -7 0 2650 
1782 1 0.109585 0.00051028 0.018854 0.000423 0 2.23961 0 2650 
217 1 0.11624 0.00063407 0.01924 0.000116 0 -7 0 2650 
103 1 0.134585 0.0005046 0.01865 0.000116 0 2.23849 0 2650 
2290 1 0.058947 0.00101266 0.018645 0.000656 0 2.23969 0 2650 
1989 1 0.0415532 0.00410396 0.0187107 0.000656 10.1656 1.11628 1.1651 2650 
467 1 0.008277 0.0006373 0.020141 0.000423 0 2.23963 0 2650 
1380 1 0.012312 0.00069907 0.019777 0.000423 0 -7 0 2650 
491 1 0.037832 0.000291285 0.020112 0.000116 0 2.23825 0 2650 
863 1 0.056957 0.000799837 0.019571 0.000423 0 2.23965 0 2650 
2453 1 0.070332 0.000507279 0.019926 0.000116 0 2.23917 0 2650 
255 1 0.111674 0.000399106 0.019727 0.000423 0 2.88182 0 2650 
635 1 0.124633 0.00051028 0.019499 0.000423 0 2.23961 0 2650 
1191 1 0.147173 0.000429015 0.019927 0.000423 0 2.23963 0 2650 
327 1 0.019879 0.00105007 0.020058 0.000423 0 -7 0 2650 
1941 1 0.102976 0.00095107 0.019466 0.000116 0 -7 0 2650 
2423 1 0.0360799 0.00176215 0.0200167 0.000423 -0.524783 -4.75206 2.48221 2650 
2139 1 0.0984536 0.00474927 0.0194562 0.000423 -3.3797 -1.7183 1.96296 2650 
37 1 0.034376 0.00013173 0.020581 0.000116 0 2.23824 0 2650 
809 1 0.022569 0.000243056 0.020657 0.000116 0 2.23917 0 2650 
1065 1 0.027926 0.000743521 0.020581 0.000423 0 2.23961 0 2650 
2085 1 0.051831 0.000479567 0.02068 0.000423 0 2.23965 0 2650 
1643 1 0.072452 0.000750565 0.020494 0.000423 0 2.23965 0 2650 
2372 1 0.083067 0.000162446 0.020627 0.000116 0 2.23917 0 2650 
1849 1 0.097369 0.000564351 0.02094 0.000423 0 2.23961 0 2650 
2433 1 0.120631 0.00079207 0.020189 0.000116 0 -7 0 2650 
1861 1 0.14233 0.00022907 0.020248 0.000116 0 -7 0 2650 
501 1 0.149638 0.000152287 0.020687 4.2e-05 0 2.23441 0 2650 
231 1 0.151138 0.00063007 0.020606 0.000423 0 -7 0 2650 
1493 1 0.014484 0.00138107 0.020771 0.000423 0 -7 0 2650 
2354 1 0.014959 0.00135107 0.020276 0.000116 0 -7 0 2650 
1217 1 0.018898 0.00140907 0.020259 0.000423 0 -7 0 2650 
2245 1 0.084222 0.00100907 0.020706 0.000116 0 -7 0 2650 
888 1 0.136044 0.00089407 0.020613 0.000423 0 -7 0 2650 
2451 1 0.048261 0.000131857 0.021077 4.2e-05 0 2.23441 0 2650 
15 1 0.048347 0.000464307 0.021217 0.000116 0 2.23849 0 2650 
746 1 0.081277 0.00024307 0.020981 0.000116 0 -7 0 2650 
1292 1 0.094998 0.00022507 0.021521 0.000116 0 -7 0 2650 
2349 1 0.144223 0.00068007 0.021596 0.000423 0 -7 0 2650 
2094 1 0.153133 0.000824474 0.021671 0.000423 0 2.23965 0 2650 
1067 1 0.0167538 0.000948254 0.0210154 0.000423 -0.390084 2.45924 -0.821365 2650 
429 1 0.08347 0.00106407 0.021246 0.000423 0 -7 0 2650 
2172 1 0.121251 0.00109707 0.021576 0.000116 0 -7 0 2650 
1669 1 0.13613 0.00121307 0.02153 0.000423 0 -7 0 2650 
111 1 0.145579 0.00143307 0.021193 0.000116 0 -7 0 2650 
2123 1 0.020135 0.00076407 0.022133 0.000423 0 -7 0 2650 
751 1 0.020676 0.00020807 0.022507 0.000116 0 -7 0 2650 
2210 1 0.034314 0.00021407 0.022213 0.000116 0 -7 0 2650 
2416 1 0.041036 0.00047007 0.021765 0.000423 0 -7 0 2650 
1388 1 0.04315 0.000322931 0.022276 0.000116 0 2.23815 0 2650 
1243 1 0.061472 0.000408513 0.021782 4.2e-05 0 2.23579 0 2650 
2096 1 0.096139 0.00062007 0.022521 4.2e-05 0 -7 0 2650 
313 1 0.12468 0.00037907 0.022334 0.000116 0 -7 0 2650 
493 1 0.126871 0.000432853 0.022504 0.000423 0 2.23951 0 2650 
1994 1 0.142649 0.000557312 0.022027 0.000423 0 2.23961 0 2650 
1560 1 0.145212 0.000647541 0.022301 0.000423 0 2.23965 0 2650 
674 1 0.042926 0.00112007 0.021928 0.000656 0 -7 0 2650 
414 1 0.066167 0.00136007 0.021955 0.000116 0 -7 0 2650 
38 1 0.0174964 0.000639978 0.022579 0.000423 0.390905 2.01984 0.823094 2650 
993 1 0.028135 0.00055907 0.023309 0.000116 0 -7 0 2650 
1986 1 0.066282 0.000326251 0.022706 4.2e-05 0 2.23441 0 2650 
2314 1 0.076991 0.000506839 0.022691 0.000116 0 2.23849 0 2650 
1246 1 0.080504 0.000439009 0.023289 0.000116 0 2.23825 0 2650 
1504 1 0.095192 0.000197278 0.022785 0.000116 0 2.23825 0 2650 
1895 1 0.107656 0.00039214 0.023279 4.2e-05 0 2.23729 0 2650 
1118 1 0.119151 0.000278513 0.022741 0.000116 0 2.23849 0 2650 
646 1 0.140105 0.000379157 0.023238 0.000423 0 1.75016 0 2650 
82 1 0.154961 0.00049907 0.023145 0.000423 0 -7 0 2650 
923 1 0.161252 0.000168827 0.023014 0.000116 0 2.23849 0 2650 
2270 1 0.000832 0.00087107 0.023295 0.000423 0 -7 0 2650 
249 1 0.022254 0.00139807 0.0233 0.000116 0 -7 0 2650 
1642 1 0.137147 0.00089207 0.023316 0.000423 0 -7 0 2650 
2115 1 0.016765 0.000125015 0.02409 0.000116 0 2.23824 0 2650 
518 1 0.03397 0.000221623 0.023721 0.000116 0 2.23914 0 2650 
1937 1 0.043278 0.000277216 0.023552 0.000116 0 2.23824 0 2650 
1456 1 0.076694 0.000479977 0.023974 0.000116 0 2.23849 0 2650 
879 1 0.116971 0.000396758 0.023556 4.2e-05 0 2.23418 0 2650 
1812 1 0.145705 0.00068607 0.02396 0.000423 0 -7 0 2650 
1263 1 0.073086 0.00137707 0.023941 0.000423 0 -7 0 2650 
446 1 0.101555 0.00090307 0.023987 4.2e-05 0 -7 0 2650 
400 1 0.131378 0.00103207 0.023773 4.2e-05 0 -7 0 2650 
2223 1 0.06383 0.00236789 0.0234819 0.000423 -0.895355 -4.61929 -1.78423 2650 
339 1 0.035201 0.00070307 0.024381 0.000423 0 -7 0 2650 
617 1 0.041439 0.000665762 0.024608 0.000423 0 2.23951 0 2650 
958 1 0.054851 0.00049207 0.024231 0.000116 0 -7 0 2650 
47 1 0.085962 0.000844303 0.024809 0.000423 0 2.23961 0 2650 
2269 1 0.138223 0.000523718 0.024436 0.000423 0 2.23961 0 2650 
828 1 0.159183 0.00046307 0.024535 0.000116 0 -7 0 2650 
2136 1 0.002327 0.00139107 0.024891 0.000116 0 -7 0 2650 
1583 1 0.023207 0.00117307 0.02431 0.000423 0 -7 0 2650 
2381 1 0.054499 0.00109707 0.024569 0.000116 0 -7 0 2650 
544 1 0.096732 0.000945788 0.024122 0.000656 0 2.23969 0 2650 
1056 1 0.129981 0.00109107 0.024264 0.000656 0 -7 0 2650 
1225 1 0.148005 0.001108 0.024592 0.000656 0 2.23968 0 2650 
2499 1 0.137558 0.000140795 0.025442 4.2e-05 0 2.23441 0 2650 
331 1 0.008847 0.000476419 0.025112 0.000116 0 2.23824 0 2650 
2375 1 0.039706 0.00076007 0.024993 0.000116 0 -7 0 2650 
1935 1 0.054785 0.000495269 0.025329 0.000116 0 2.23815 0 2650 
1374 1 0.0633937 0.000713679 0.025283 0.000423 -0.361537 -7.01054 0.201708 2650 
719 1 0.0646968 0.000670086 0.0250504 0.000656 0.244649 2.443 0.295326 2650 
437 1 0.068747 0.000652669 0.024959 0.000656 0 2.30144 0 2650 
1104 1 0.096386 0.000611063 0.025692 0.000423 0 2.23961 0 2650 
2356 1 0.082785 0.00105607 0.025415 0.000116 0 -7 0 2650 
1745 1 0.10678 0.00093307 0.025316 0.000423 0 -7 0 2650 
120 1 0.124076 0.00110807 0.025565 0.000423 0 -7 0 2650 
2009 1 0.136827 0.00129407 0.02526 0.000656 0 -7 0 2650 
2283 1 0.075251 0.000231167 0.026091 0.000116 0 2.23815 0 2650 
930 1 0.077129 0.00054407 0.025773 0.000423 0 -7 0 2650 
1025 1 0.086945 0.000777492 0.025794 0.000656 0 2.23969 0 2650 
130 1 0.115638 0.00043607 0.026445 0.000116 0 -7 0 2650 
2126 1 0.133494 0.00021507 0.025818 4.2e-05 0 -7 0 2650 
441 1 0.136743 0.000299993 0.025781 0.000116 0 2.23914 0 2650 
1942 1 0.145658 0.00030607 0.025799 4.2e-05 0 -7 0 2650 
631 1 0.153063 0.00044501 0.025957 0.000423 0 2.23948 0 2650 
86 1 0.158832 0.000104095 0.026032 0.000116 0 -2.27875 0 2650 
2409 1 0.045373 0.00123207 0.026375 0.000116 0 -7 0 2650 
2469 1 0.071532 0.00143607 0.025811 0.000116 0 -7 0 2650 
1319 1 0.091555 0.00134507 0.0258 0.000423 0 -7 0 2650 
2056 1 0.156272 0.00091907 0.026115 0.000116 0 -7 0 2650 
1490 1 0.010825 0.000497485 0.026744 0.000423 0 2.23965 0 2650 
2149 1 0.020829 0.00028807 0.02721 0.000116 0 -7 0 2650 
1153 1 0.0277218 0.000374359 0.0266284 0.000116 -17.742 2.87747 -9.1319 2650 
70 1 0.049569 0.000737127 0.027006 0.000423 0 2.23965 0 2650 
1638 1 0.051593 0.000692384 0.026922 0.000656 0 2.23969 0 2650 
1777 1 0.057211 0.000422615 0.026905 0.000423 0 2.24692 0 2650 
1117 1 0.089455 0.00050907 0.026925 0.000423 0 -7 0 2650 
23 1 0.0923455 0.000789969 0.0271269 0.000423 0.969267 5.65554 -3.00927 2650 
2262 1 0.110514 0.000463569 0.026869 0.000423 0 2.23961 0 2650 
977 1 0.13334 0.000408924 0.026793 4.2e-05 0 2.23441 0 2650 
428 1 0.156242 0.000523079 0.026554 0.000423 0 2.23963 0 2650 
2030 1 0.02889 0.00101107 0.02685 0.000116 0 -7 0 2650 
817 1 0.075874 0.00131807 0.026873 0.000116 0 -7 0 2650 
266 1 0.0811903 0.000431798 0.027512 0.000423 -8.59041 1.59041 0 2650 
1929 1 0.092846 0.000483774 0.027856 0.000116 0 2.23825 0 2650 
721 1 0.103254 0.00061007 0.027601 0.000656 0 -7 0 2650 
1086 1 0.110601 0.000777441 0.027997 0.000423 0 2.23965 0 2650 
2405 1 0.119159 0.000333331 0.0273147 0.000423 0 0.639576 -7.63958 2650 
1400 1 0.131684 0.00049332 0.027456 0.000423 0 2.23951 0 2650 
2107 1 0.138375 0.000355554 0.027461 0.000116 0 2.23824 0 2650 
1482 1 0.157259 0.00048507 0.027332 4.2e-05 0 -7 0 2650 
1195 1 0.159417 0.00052907 0.027491 4.2e-05 0 -7 0 2650 
1722 1 0.015485 0.00115807 0.02792 0.000423 0 -7 0 2650 
458 1 0.023778 0.00110107 0.02804 0.000116 0 -7 0 2650 
571 1 0.123616 0.00095607 0.027453 0.000423 0 -7 0 2650 
567 1 0.012167 0.000337648 0.028577 0.000116 0 2.23824 0 2650 
1740 1 0.044597 0.000171696 0.028771 0.000116 0 2.23815 0 2650 
882 1 0.08832 0.00043307 0.028089 0.000116 0 -7 0 2650 
1320 1 0.088834 0.00077907 0.028395 0.000116 0 -7 0 2650 
1562 1 0.106581 0.00049107 0.028147 4.2e-05 0 -7 0 2650 
1076 1 0.006655 0.00125307 0.028645 4.2e-05 0 -7 0 2650 
1662 1 0.009982 0.00107407 0.028422 0.000116 0 -7 0 2650 
1340 1 0.0467861 0.00107385 0.028038 0.000656 -5.71693 -5.65723 -4.08934 2650 
2359 1 0.065394 0.00120507 0.028807 0.000656 0 -7 0 2650 
2059 1 0.066155 0.00134607 0.028516 4.2e-05 0 -7 0 2650 
261 1 0.068779 0.00118507 0.028837 0.000423 0 -7 0 2650 
318 1 0.078015 0.00110989 0.0287345 0.000423 -0.796454 -6.35566 -0.982893 2650 
271 1 0.023654 0.00041807 0.02955 0.000116 0 -7 0 2650 
66 1 0.028179 0.00044107 0.028997 0.000423 0 -7 0 2650 
1763 1 0.047656 0.000749282 0.029583 0.000423 0 2.23963 0 2650 
956 1 0.077236 0.000375623 0.029149 0.000423 0 0.529225 0 2650 
1177 1 0.078506 0.000811747 0.0293405 0.000423 0.796454 1.59516 0.982893 2650 
1470 1 0.12141 0.00025307 0.029441 4.2e-05 0 -7 0 2650 
2058 1 0.13183 0.000764868 0.0294348 0.000423 0.116053 -0.993838 -2.27377 2650 
1622 1 0.148534 0.000180649 0.028927 0.000116 0 2.23815 0 2650 
1930 1 0.155149 0.00011907 0.029092 0.000116 0 -7 0 2650 
1915 1 0.030283 0.00111153 0.029516 0.000656 0 2.23969 0 2650 
682 1 0.088745 0.00136507 0.029072 0.000116 0 -7 0 2650 
2494 1 0.112264 0.00142707 0.029261 0.000116 0 -7 0 2650 
431 1 0.152539 0.00117107 0.029046 0.000656 0 -7 0 2650 
709 1 0.0731 0.000362321 0.030266 4.2e-05 0 2.23441 0 2650 
1489 1 0.085601 0.000817107 0.029983 0.000423 0 2.23961 0 2650 
2170 1 0.091337 0.000707101 0.030379 0.000656 0 2.23968 0 2650 
2480 1 0.014403 0.00142407 0.029889 0.000423 0 -7 0 2650 
71 1 0.106422 0.00115207 0.030376 0.000423 0 -7 0 2650 
620 1 0.130104 0.00142307 0.029694 0.000423 0 -7 0 2650 
832 1 0.131799 0.00135625 0.0300402 0.000423 -0.116053 -3.76666 2.27377 2650 
1950 1 0.022167 0.000811667 0.030465 0.000423 0 2.23961 0 2650 
877 1 0.039966 0.00046907 0.03105 0.000116 0 -7 0 2650 
944 1 0.0549187 0.000496954 0.0306362 0.000116 5.13302 -5.09061 -4.26128 2650 
1943 1 0.078682 0.00051107 0.031037 0.000116 0 -7 0 2650 
774 1 0.11455 0.000316949 0.030516 0.000116 0 2.23917 0 2650 
602 1 0.116328 0.000490124 0.030689 0.000423 0 2.23961 0 2650 
1775 1 0.150402 0.00071307 0.030808 4.2e-05 0 -7 0 2650 
2124 1 0.154316 0.000639218 0.031201 0.000423 0 2.23961 0 2650 
1122 1 0.155298 0.000841742 0.030545 0.000423 0 2.23961 0 2650 
1603 1 0.023098 0.00129307 0.030883 0.000423 0 -7 0 2650 
1987 1 0.071649 0.00130207 0.030617 0.000116 0 -7 0 2650 
336 1 0.087181 0.000964665 0.030702 0.000656 0 2.23968 0 2650 
1238 1 0.104414 0.00103907 0.030915 0.000116 0 -7 0 2650 
636 1 0.009596 0.000438819 0.031372 0.000116 0 2.23914 0 2650 
162 1 0.037082 0.000422134 0.0314462 0.000423 0.289673 2.24662 0.149097 2650 
857 1 0.064491 0.000804949 0.03123 0.000423 0 2.23961 0 2650 