ITEM: TIMESTEP
85000
ITEM: NUMBER OF ATOMS
2459
ITEM: BOX BOUNDS ff ff ff
-0.005905 0.167905
-0.000656 0.011154
-0.005905 0.167905
ITEM: ATOMS id type x y z radius vx vy vz density 
1188 1 0.020639 0.000891858 0.000927 0.000116 0 2.23849 0 2650 
65 1 0.027038 0.00061519 0.001133 0.000116 0 2.23824 0 2650 
1756 1 0.004144 0.0010657 0.000832 0.000423 0 2.23961 0 2650 
2317 1 0.014297 0.00172319 0.001071 0.000423 0 2.23961 0 2650 
2078 1 0.019324 0.000973308 0.000953 0.000116 0 2.23824 0 2650 
820 1 0.110174 0.00138544 0.001096 0.000656 0 2.2398 0 2650 
1551 1 0.0857125 0.00181995 0.000899938 0.000656 0.551287 1.97103 -0.133068 2650 
84 1 0.108185 0.00190533 0.001133 0.000656 0 2.23968 0 2650 
2340 1 0.031543 0.000877691 0.001662 0.000116 0 2.23914 0 2650 
2403 1 0.006528 0.00169951 0.001419 0.000423 0 2.23961 0 2650 
1432 1 0.016035 0.00172447 0.001465 0.000423 0 2.23961 0 2650 
2391 1 0.018068 0.00108839 0.001955 4.2e-05 0 2.23757 0 2650 
692 1 0.038362 0.000946449 0.001808 0.000116 0 2.23824 0 2650 
213 1 0.044271 0.00153315 0.001469 0.000423 0 2.23963 0 2650 
240 1 0.0508568 0.000964774 0.00186547 0.000423 -1.06533 1.37752 -1.50895 2650 
1974 1 0.073895 0.00121417 0.001874 0.000423 0 2.23965 0 2650 
886 1 0.0831808 0.00120123 0.00171145 0.000423 -0.821324 2.12897 0.317751 2650 
666 1 0.0839971 0.00122619 0.0012551 0.000423 -0.744671 2.02934 0.0764923 2650 
1136 1 0.0940006 0.00150402 0.00164691 0.000423 0.000643196 2.23497 0.0606212 2650 
355 1 0.111145 0.00114633 0.001866 0.000423 0 2.23961 0 2650 
2142 1 0.126502 0.00120111 0.001576 0.000656 0 2.23969 0 2650 
990 1 0.109085 0.000144866 0.00238943 0.000116 13.1517 1.54325 -13.5855 2650 
1066 1 0.011114 0.000665073 0.002419 0.000116 0 2.23825 0 2650 
1370 1 0.0447344 0.000710591 0.00218656 0.000116 5.56923 1.60978 -4.153 2650 
2298 1 0.077914 0.000891858 0.002756 0.000116 0 2.23849 0 2650 
2049 1 0.084987 0.000644928 0.002439 0.000116 0 2.23825 0 2650 
1752 1 0.130965 0.000902624 0.002114 4.2e-05 0 2.23579 0 2650 
1664 1 0.158101 0.000609415 0.002099 0.000116 0 2.23815 0 2650 
1274 1 0.018553 0.00113802 0.002496 0.000423 0 2.23965 0 2650 
1776 1 0.021661 0.00134179 0.002691 0.000116 0 2.23849 0 2650 
1138 1 0.101697 0.00111497 0.002616 0.000423 0 2.23961 0 2650 
1422 1 0.104327 0.00140172 0.002201 0.000116 0 2.23815 0 2650 
652 1 0.10982 0.00147235 0.002424 0.000423 0 2.23961 0 2650 
985 1 0.116858 0.00123949 0.002415 0.000116 0 2.23917 0 2650 
94 1 0.127492 0.00128059 0.002577 0.000116 0 2.23825 0 2650 
1061 1 0.0213102 0.000639745 0.00334387 0.000423 -1.50192 0.49139 -4.75156 2650 
2089 1 0.055205 0.000779655 0.003367 4.2e-05 0 2.23579 0 2650 
2459 1 0.074324 0.000804134 0.003444 0.000116 0 2.23815 0 2650 
1356 1 0.13778 0.000918865 0.00304871 0.000423 1.10502 1.29652 -1.48652 2650 
658 1 0.150029 0.00067522 0.003124 0.000116 0 2.23918 0 2650 
1524 1 0.0221543 0.00161751 0.00302635 0.000423 0.0794613 2.08506 -0.0358902 2650 
840 1 0.080646 0.000965281 0.003038 0.000116 0 2.23815 0 2650 
2174 1 0.086202 0.0013188 0.003033 0.000116 0 2.23914 0 2650 
254 1 0.0943 0.00124729 0.003434 0.000116 0 2.23815 0 2650 
95 1 0.131556 0.00108148 0.00348501 0.000116 -4.06674 0.294724 -1.33682 2650 
892 1 0.0230968 0.00211619 0.00319854 0.000423 1.50192 3.05793 -3.55829 2650 
361 1 0.001268 0.000806373 0.003827 0.000116 0 2.23815 0 2650 
300 1 0.0525784 0.000488067 0.004304 0.000423 1.26543 0.145525 1.79239 2650 
585 1 0.143349 0.000704433 0.004178 4.2e-05 0 2.2374 0 2650 
365 1 0.014662 0.0013435 0.003871 0.000656 0 2.23971 0 2650 
1208 1 0.0196698 0.00114512 0.00405756 0.000116 -3.89137 0.441907 1.61315 2650 
1606 1 0.035843 0.000983159 0.003632 0.000423 0 2.23961 0 2650 
2047 1 0.0422781 0.00115404 0.00401824 0.000423 -0.109297 2.17458 0.0815035 2650 
1764 1 0.1048 0.00126855 0.003935 0.000423 0 2.23961 0 2650 
824 1 0.126159 0.0016812 0.003789 0.000423 0 2.23948 0 2650 
648 1 0.133919 0.00154053 0.00426178 0.000423 0.0838685 2.08917 0.0275692 2650 
1816 1 0.147786 0.00151139 0.003726 0.000423 0 2.23961 0 2650 
2050 1 0.0506754 0.00235256 0.0039319 0.000423 -5.51865 -1.1639 -1.19652 2650 
980 1 0.06939 0.00201284 0.003991 0.000656 0 2.23968 0 2650 
1932 1 0.141016 0.00189094 0.003702 0.000656 0 2.23969 0 2650 
176 1 0.001438 0.000583516 0.00443 0.000116 0 2.23815 0 2650 
2182 1 0.0225402 0.000594973 0.004438 4.2e-05 0.612096 1.88128 2.03166 2650 
1679 1 0.042503 0.000769261 0.005076 0.000116 0 2.23917 0 2650 
1277 1 0.075006 0.000595687 0.005099 0.000116 0 2.23825 0 2650 
1814 1 0.131875 0.000605332 0.004611 0.000116 0 2.23849 0 2650 
424 1 0.061715 0.000958202 0.005053 0.000423 0 2.23961 0 2650 
188 1 0.064849 0.00105991 0.005091 0.000423 0 2.23951 0 2650 
1635 1 0.088691 0.00102408 0.004515 0.000423 0 2.23951 0 2650 
2366 1 0.108993 0.00122599 0.004482 0.000423 0 2.23961 0 2650 
2258 1 0.115895 0.00137101 0.00444 0.000656 0 2.23969 0 2650 
573 1 0.117631 0.00112844 0.005072 4.2e-05 0 2.23579 0 2650 
1123 1 0.134858 0.00145476 0.004516 0.000423 0 2.23963 0 2650 
345 1 0.146378 0.0015453 0.004988 0.000423 0 2.23961 0 2650 
1883 1 0.158442 0.00127715 0.004964 0.000423 0 2.23951 0 2650 
1446 1 0.033447 0.000915113 0.005416 0.000116 0 2.23824 0 2650 
1659 1 0.055425 0.000571066 0.005474 0.000116 0 2.23825 0 2650 
916 1 0.136041 0.000537348 0.00538834 0.000423 -1.264 0.226579 1.70038 2650 
1806 1 0.067083 0.00167672 0.005229 0.000423 0 2.23948 0 2650 
1040 1 0.099414 0.00172953 0.005841 0.000423 0 2.23951 0 2650 
779 1 0.0594424 0.00302278 0.00583271 0.000423 3.85388 4.10676 0.835576 2650 
1819 1 0.038335 0.000636273 0.006672 0.000116 0 2.23815 0 2650 
1627 1 0.0737786 0.00083721 0.00601064 0.000116 -3.68 1.57168 -4.72205 2650 
218 1 0.080191 0.000932606 0.006156 0.000423 0 2.23961 0 2650 
1963 1 0.083996 0.000556715 0.006477 4.2e-05 0 2.23441 0 2650 
1852 1 0.154146 0.000923973 0.005953 0.000423 0 2.23963 0 2650 
104 1 0.020242 0.00104939 0.006244 0.000423 0 2.23963 0 2650 
831 1 0.025684 0.00149347 0.00637 0.000423 0 2.23961 0 2650 
628 1 0.0735828 0.0009565 0.00662612 0.000423 -0.11775 2.25635 0.0973831 2650 
1820 1 0.09489 0.00124246 0.006065 4.2e-05 0 2.23579 0 2650 
2111 1 0.136698 0.00120745 0.006144 0.000423 0 2.23965 0 2650 
1410 1 0.150839 0.0010636 0.006562 4.2e-05 0 2.23579 0 2650 
881 1 0.115591 0.0021386 0.00660155 0.000656 0.207126 -0.626163 -2.2878 2650 
960 1 0.00685 0.000584795 0.006958 0.000116 0 2.23815 0 2650 
1810 1 0.043944 0.000623803 0.007253 0.000116 0 2.23815 0 2650 
1233 1 0.008632 0.00102632 0.007405 0.000423 0 2.23951 0 2650 
1909 1 0.018376 0.00137862 0.007196 0.000423 0 2.23963 0 2650 
2425 1 0.026329 0.00105165 0.006758 0.000116 0 2.23824 0 2650 
1531 1 0.029084 0.00135941 0.007413 0.000423 0 2.23961 0 2650 
1307 1 0.035736 0.00122016 0.006764 0.000116 0 2.23825 0 2650 
2234 1 0.053132 0.00172033 0.007104 0.000423 0 2.23965 0 2650 
352 1 0.101602 0.00134926 0.00681472 0.000423 0.453302 1.57283 -1.58017 2650 
575 1 0.113515 0.00104139 0.006827 0.000423 0 2.23961 0 2650 
2128 1 0.115633 0.00112466 0.006908 0.000116 0 2.23849 0 2650 
1387 1 0.140551 0.000980245 0.007306 0.000423 0 2.23948 0 2650 
200 1 0.105562 0.000656937 0.00809523 0.000423 0.247037 0.673181 -0.558684 2650 
2093 1 0.133208 0.000926498 0.007989 0.000423 0 2.23948 0 2650 
554 1 0.003153 0.00111279 0.007568 4.2e-05 0 2.23579 0 2650 
2385 1 0.0280287 0.00136555 0.00795143 0.000423 -0.879729 2.50774 -2.04498 2650 
917 1 0.028712 0.00113361 0.008079 0.000116 0 2.23849 0 2650 
18 1 0.083283 0.00110608 0.007617 0.000116 0 2.23914 0 2650 
1960 1 0.094905 0.00161154 0.008097 0.000423 0 2.23963 0 2650 
1159 1 0.150815 0.0013495 0.007685 0.000423 0 2.23963 0 2650 
706 1 0.0610783 0.00196901 0.00781953 0.000423 0.265473 2.54909 -0.409458 2650 
1946 1 0.09912 0.000860144 0.009084 4.2e-05 0 2.23579 0 2650 
5 1 0.137396 0.000693134 0.008337 0.000116 0 2.23918 0 2650 
1173 1 0.152246 0.00082261 0.009042 4.2e-05 0 2.23441 0 2650 
2264 1 0.159154 0.000701179 0.008714 0.000116 0 2.23815 0 2650 
1517 1 0.004885 0.00154659 0.008365 0.000423 0 2.23963 0 2650 
967 1 0.045216 0.000949895 0.009072 0.000423 0 2.23965 0 2650 
337 1 0.078317 0.00119311 0.00903 0.000656 0 2.23968 0 2650 
508 1 0.101093 0.0013169 0.00858864 0.000656 -0.0949987 2.1825 0.331157 2650 
552 1 0.105184 0.0013637 0.00894832 0.000423 -0.505712 0.411121 1.14369 2650 
2121 1 0.1556 0.00100963 0.008517 4.2e-05 0 2.23729 0 2650 
366 1 0.039524 0.00173119 0.008361 0.000423 0 2.23961 0 2650 
1353 1 0.135932 0.00179568 0.00907606 0.000656 0.000357376 2.23698 0.000135862 2650 
157 1 0.135212 0.00295928 0.00880228 4.2e-05 -1.36172 3.32842 -0.51768 2650 
165 1 0.041117 0.000808611 0.009537 0.000116 0 2.23815 0 2650 
2015 1 0.098067 0.000711047 0.009838 0.000116 0 2.23918 0 2650 
784 1 0.123424 0.000823849 0.00977305 0.000423 1.45671 1.77523 -0.546539 2650 
1194 1 0.138262 0.000701587 0.009231 0.000116 0 2.23849 0 2650 
404 1 0.117705 0.00171479 0.009716 0.000423 0 2.23948 0 2650 
1881 1 0.119492 0.00149547 0.009255 0.000656 0 2.23968 0 2650 
1688 1 0.141376 0.0011925 0.009894 0.000656 0 2.23979 0 2650 
1412 1 0.145768 0.00107691 0.009397 0.000116 0 2.23825 0 2650 
2197 1 0.0290898 0.000619849 0.0104179 0.000423 1.04788 1.01169 2.43586 2650 
1418 1 0.11782 0.000920959 0.010281 0.000116 0 2.23849 0 2650 
2145 1 0.121567 0.00074432 0.0104697 0.000423 -1.86021 0.787823 0.697926 2650 
212 1 0.148551 0.000924608 0.010262 0.000423 0 2.23961 0 2650 
623 1 0.017229 0.00152573 0.010022 0.000423 0 2.23951 0 2650 
1163 1 0.038505 0.00111947 0.010104 4.2e-05 0 2.23441 0 2650 
691 1 0.065911 0.00105096 0.010344 0.000423 0 2.23951 0 2650 
2294 1 0.067079 0.00166848 0.010632 0.000423 0 2.23961 0 2650 
1455 1 0.069014 0.00121842 0.010395 0.000656 0 2.23979 0 2650 
59 1 0.080657 0.0012603 0.010435 0.000656 0 2.23968 0 2650 
177 1 0.102003 0.00120419 0.01063 0.000423 0 2.23948 0 2650 
1335 1 0.129495 0.00119853 0.009967 0.000116 0 2.23849 0 2650 
866 1 0.150967 0.00150309 0.010212 0.000423 0 2.23965 0 2650 
2373 1 0.056707 0.000627621 0.011468 4.2e-05 0 2.23579 0 2650 
1548 1 0.098569 0.000814046 0.010796 0.000116 0 2.23815 0 2650 
1842 1 0.128813 0.000757133 0.011369 0.000116 0 2.23815 0 2650 
1717 1 0.139512 0.000751993 0.011002 4.2e-05 0 2.23418 0 2650 
1424 1 0.018389 0.00147331 0.010884 0.000423 0 2.23961 0 2650 
859 1 0.020765 0.00130342 0.011218 0.000423 0 2.23961 0 2650 
2442 1 0.061003 0.00122715 0.011176 0.000116 0 2.23815 0 2650 
278 1 0.078922 0.00131269 0.011437 0.000116 0 2.23849 0 2650 
605 1 0.119587 0.00125596 0.0108049 0.000116 -0.106695 6.79005 -0.103207 2650 
2046 1 0.131412 0.00119519 0.0108075 0.000116 -0.178249 1.93796 -0.108222 2650 
972 1 0.159836 0.00107146 0.011222 0.000423 0 2.23961 0 2650 
1886 1 0.024919 0.000577646 0.01171 0.000116 0 2.23914 0 2650 
2390 1 0.033791 0.000742425 0.012191 0.000116 0 2.23815 0 2650 
1733 1 0.093161 0.000643946 0.012041 0.000116 0 2.23815 0 2650 
1899 1 0.094988 0.000706867 0.0117486 0.000116 1.87708 1.92082 0.258428 2650 
650 1 0.13304 0.000299092 0.0117957 4.2e-05 3.75537 -0.654127 2.28004 2650 
460 1 0.003722 0.00133287 0.011587 0.000423 0 2.23965 0 2650 
1542 1 0.041337 0.00167264 0.011979 0.000423 0 2.23961 0 2650 
219 1 0.04317 0.000952811 0.011985 0.000116 0 2.23815 0 2650 
1236 1 0.0936626 0.00133494 0.0115694 0.000423 -0.0535116 2.20749 0.000813506 2650 
2205 1 0.125225 0.0012889 0.012172 0.000116 0 2.23824 0 2650 
966 1 0.140948 0.00135893 0.011888 0.000116 0 2.23825 0 2650 
2067 1 0.141648 0.00169817 0.011964 0.000423 0 2.23951 0 2650 
1112 1 0.151852 0.00122127 0.012176 4.2e-05 0 2.2374 0 2650 
2040 1 0.0709554 0.00233302 0.0119887 0.000116 -0.83955 4.01824 -1.40681 2650 
67 1 0.096194 0.00190923 0.011854 0.000656 0 2.23979 0 2650 
197 1 0.001978 0.000712073 0.012413 4.2e-05 0 2.23729 0 2650 
489 1 0.047522 0.000925544 0.012445 0.000423 0 2.23951 0 2650 
1205 1 0.074386 0.000605805 0.012556 0.000116 0 2.23918 0 2650 
2175 1 0.099879 0.000775038 0.012522 0.000116 0 2.23815 0 2650 
1598 1 0.140638 0.000602402 0.012616 0.000116 0 2.23825 0 2650 
2495 1 0.004327 0.00121128 0.013029 0.000423 0 2.23961 0 2650 
895 1 0.045265 0.00132749 0.012269 0.000656 0 2.23968 0 2650 
597 1 0.052746 0.00141694 0.012275 0.000423 0 2.23948 0 2650 
738 1 0.077063 0.00118153 0.012617 0.000423 0 2.23963 0 2650 
294 1 0.083181 0.00116612 0.012766 0.000423 0 2.23948 0 2650 
794 1 0.101794 0.0011925 0.012964 0.000656 0 2.23979 0 2650 
723 1 0.135627 0.00128758 0.012992 0.000116 0 2.23815 0 2650 
1396 1 0.149437 0.00168898 0.012358 0.000423 0 2.23965 0 2650 
1535 1 0.11501 0.00389518 0.0130112 0.000423 -0.281499 -3.14964 3.10928 2650 
265 1 0.051603 0.000755311 0.013845 0.000116 0 2.23849 0 2650 
459 1 0.065523 0.000750419 0.013362 0.000116 0 2.23815 0 2650 
1241 1 0.080082 0.000597925 0.01365 0.000116 0 2.23825 0 2650 
1385 1 0.09883 0.000827822 0.013076 0.000116 0 2.23824 0 2650 
1348 1 0.132843 0.000666669 0.013729 0.000116 0 2.23824 0 2650 
1284 1 0.020685 0.00169664 0.013078 0.000423 0 2.23963 0 2650 
1719 1 0.032653 0.00103371 0.013588 0.000423 0 2.23963 0 2650 
2120 1 0.056455 0.00163904 0.013138 0.000423 0 2.23961 0 2650 
954 1 0.0719281 0.00121875 0.0136185 0.000656 0.00469377 2.2299 0.00786524 2650 
2302 1 0.075182 0.00105802 0.013287 0.000423 0 2.23961 0 2650 
2436 1 0.084941 0.00112515 0.013757 0.000116 0 2.23815 0 2650 
1833 1 0.115349 0.0015222 0.013093 0.000423 0 2.23948 0 2650 
1601 1 0.129629 0.00103019 0.013243 0.000116 0 2.23815 0 2650 
1649 1 0.14757 0.00156003 0.013797 0.000423 0 2.23963 0 2650 
2243 1 0.046104 0.0020186 0.013449 0.000656 0 2.23969 0 2650 
27 1 0.030797 0.000841865 0.014592 0.000116 0 2.23914 0 2650 
48 1 0.035058 0.000845392 0.013916 0.000116 0 2.23917 0 2650 
152 1 0.048531 0.000591081 0.014359 0.000116 0 2.23914 0 2650 
1931 1 0.102655 0.000493474 0.014112 4.2e-05 0 2.23579 0 2650 
630 1 0.10425 0.000747246 0.014428 0.000116 0 2.23824 0 2650 
790 1 0.126922 0.000597798 0.01428 0.000116 0 2.23914 0 2650 
2097 1 0.157939 0.000782742 0.014523 4.2e-05 0 2.2374 0 2650 
1801 1 0.010927 0.00128929 0.014115 0.000423 0 2.23948 0 2650 
610 1 0.039545 0.00140704 0.013854 0.000423 0 2.23951 0 2650 
412 1 0.055062 0.00168511 0.014355 0.000423 0 2.23961 0 2650 
1452 1 0.057611 0.00100557 0.014495 0.000116 0 2.23815 0 2650 
1135 1 0.075772 0.00117284 0.014316 0.000423 0 2.23948 0 2650 
1458 1 0.142812 0.00119565 0.014111 0.000116 0 2.23914 0 2650 
1257 1 0.1497 0.00126428 0.014178 0.000116 0 2.23824 0 2650 
1002 1 0.008661 0.000620606 0.015305 0.000116 0 2.23815 0 2650 
1998 1 0.04633 0.000586784 0.01483 4.2e-05 0 2.23729 0 2650 
1308 1 0.051143 0.000704329 0.015138 0.000116 0 2.23918 0 2650 
724 1 0.051952 0.000779169 0.015061 0.000116 0 2.23914 0 2650 
1484 1 0.053459 0.000620606 0.015164 0.000116 0 2.23815 0 2650 
616 1 0.060796 0.000880232 0.014808 0.000116 0 2.23815 0 2650 
2042 1 0.087817 0.000655137 0.015033 0.000116 0 2.23815 0 2650 
1790 1 0.014573 0.00134119 0.015413 0.000116 0 2.23914 0 2650 
1160 1 0.068631 0.00101512 0.014917 0.000423 0 2.23951 0 2650 
1207 1 0.0965984 0.00137509 0.0152875 0.000656 -0.0548809 2.24356 0.0566914 2650 
211 1 0.124407 0.00159201 0.0149 0.000423 0 2.23961 0 2650 
2335 1 0.133151 0.00137029 0.01467 0.000423 0 2.23961 0 2650 
1134 1 0.141049 0.00110387 0.0147998 4.2e-05 0 2.46724 9.46724 2650 
146 1 0.156933 0.00175337 0.015215 0.000656 0 2.23971 0 2650 
64 1 0.050143 0.000696703 0.015685 0.000116 0 2.23815 0 2650 
2177 1 0.11132 0.000938981 0.015853 0.000423 0 2.23951 0 2650 
1673 1 0.014714 0.00136933 0.015963 0.000423 0 2.23961 0 2650 
711 1 0.0251781 0.00115714 0.0161128 0.000423 -0.046851 2.25189 0.0392278 2650 
934 1 0.025869 0.00102837 0.0155343 0.000423 0.0468657 2.22742 -0.0392401 2650 
314 1 0.09027 0.0012361 0.016032 0.000116 0 2.23815 0 2650 
418 1 0.149012 0.00101065 0.015862 0.000423 0 2.23951 0 2650 
2091 1 0.104905 0.0018894 0.016209 0.000656 0 2.2398 0 2650 
2246 1 0.079128 0.000523199 0.016383 4.2e-05 0 2.23441 0 2650 
587 1 0.04028 0.00117788 0.016356 4.2e-05 0 2.23441 0 2650 
1602 1 0.042847 0.0012574 0.016354 0.000116 0 2.23917 0 2650 
57 1 0.057367 0.000944764 0.016604 0.000423 0 2.23961 0 2650 
1809 1 0.084202 0.00137605 0.016295 0.000423 0 2.23961 0 2650 
1258 1 0.0864704 0.00135082 0.016234 0.000423 -1.42113 6.15088 -1.75911 2650 
1255 1 0.103985 0.00130962 0.0169923 0.000423 2.58578 1.74351 -0.774355 2650 
1979 1 0.148755 0.00152162 0.016686 0.000423 0 2.23961 0 2650 
1440 1 0.051411 0.00185286 0.016331 0.000656 0 2.23969 0 2650 
2192 1 0.0298779 0.00397323 0.0168772 0.000656 -6.87493 5.02947 -1.31107 2650 
1739 1 0.08215 0.000554528 0.01734 4.2e-05 0 2.2374 0 2650 
2474 1 0.083353 0.000926948 0.017263 0.000116 0 2.23825 0 2650 
290 1 0.090462 0.000762606 0.017451 4.2e-05 0 2.2374 0 2650 
753 1 0.106579 0.000824704 0.017074 0.000116 0 2.23849 0 2650 
269 1 0.115081 0.000703825 0.017289 0.000116 0 2.23849 0 2650 
1589 1 0.13054 0.000793892 0.01743 0.000116 0 2.23917 0 2650 
582 1 0.145838 0.000678898 0.0171674 0.000423 -1.37323 0.61928 -0.0583622 2650 
88 1 0.147942 0.000588088 0.0172568 0.000423 1.60152 0.903831 0.0680646 2650 
1439 1 0.160999 0.000614206 0.017183 4.2e-05 0 2.23579 0 2650 
413 1 0.0167392 0.0013592 0.0170448 0.000656 0.33165 1.88219 -0.708339 2650 
198 1 0.073518 0.00155202 0.017315 0.000423 0 2.23961 0 2650 
505 1 0.079356 0.000982904 0.017099 0.000116 0 2.23825 0 2650 
1537 1 0.088848 0.00134502 0.017169 0.000423 0 2.23963 0 2650 
897 1 0.133624 0.00129641 0.017326 0.000116 0 2.23914 0 2650 
922 1 0.101303 0.00391192 0.0171579 0.000423 -0.158534 4.66164 -0.876317 2650 
396 1 0.0950189 0.00462738 0.0178816 4.2e-05 2.60542 -4.90709 13.1708 2650 
1481 1 0.103812 0.000728054 0.01798 0.000116 0.99118 2.16272 0.844179 2650 
943 1 0.039469 0.00140268 0.018546 0.000116 0 2.23815 0 2650 
2486 1 0.042163 0.00139844 0.018514 0.000423 0 2.23961 0 2650 
1887 1 0.063275 0.00156003 0.018064 0.000423 0 2.23963 0 2650 
1304 1 0.082867 0.00140032 0.018006 0.000423 0 2.23951 0 2650 
1211 1 0.099148 0.00101498 0.018421 0.000116 0 2.23849 0 2650 
359 1 0.125342 0.001012 0.018465 0.000116 0 2.23825 0 2650 
1140 1 0.138495 0.00111743 0.0179799 0.000423 0.0665955 2.2499 0.235381 2650 
770 1 0.087399 0.000809569 0.018895 0.000116 0 2.23815 0 2650 
976 1 0.091588 0.000938139 0.019221 0.000116 0 2.23825 0 2650 
217 1 0.11624 0.00082524 0.01924 0.000116 0 2.23917 0 2650 
72 1 0.01798 0.000950925 0.019191 0.000116 0 2.23824 0 2650 
1129 1 0.030015 0.00126967 0.019214 0.000116 0 2.23815 0 2650 
1058 1 0.033484 0.000950573 0.018874 0.000116 0 2.23815 0 2650 
1271 1 0.034605 0.0015862 0.019326 0.000423 0 2.23951 0 2650 
1782 1 0.109585 0.00140612 0.018854 0.000423 0 2.23961 0 2650 
103 1 0.134585 0.00139999 0.01865 0.000116 0 2.23849 0 2650 
2290 1 0.058947 0.00190853 0.018645 0.000656 0 2.23969 0 2650 
1989 1 0.0456194 0.00455047 0.0191767 0.000656 10.1656 1.11628 1.1651 2650 
600 1 0.0155165 0.00069557 0.0196562 0.000423 -1.33476 0.616903 2.85079 2650 
1941 1 0.102976 0.000723561 0.019466 0.000116 0 2.23815 0 2650 
467 1 0.008277 0.00153315 0.020141 0.000423 0 2.23963 0 2650 
1380 1 0.012312 0.00115492 0.019777 0.000423 0 2.23948 0 2650 
327 1 0.019879 0.00104267 0.020058 0.000423 0 2.23963 0 2650 
491 1 0.037832 0.00118658 0.020112 0.000116 0 2.23825 0 2650 
863 1 0.056957 0.0016957 0.019571 0.000423 0 2.23965 0 2650 
2453 1 0.070332 0.00140295 0.019926 0.000116 0 2.23917 0 2650 
255 1 0.111674 0.00129825 0.019727 0.000423 0 2.23948 0 2650 
1191 1 0.147173 0.00132487 0.019927 0.000423 0 2.23963 0 2650 
783 1 0.124604 0.00199468 0.020214 0.000656 0.344754 3.32231 7.12731 2650 
1493 1 0.014484 0.000936742 0.020771 0.000423 0 2.23951 0 2650 
2354 1 0.014959 0.000595687 0.020276 0.000116 0 2.23825 0 2650 
1217 1 0.018898 0.000927784 0.020259 0.000423 0 2.23951 0 2650 
2423 1 0.0358308 0.000547283 0.0209604 0.000423 -0.856805 1.52038 2.07117 2650 
2245 1 0.084222 0.000705277 0.020706 0.000116 0 2.23914 0 2650 
2433 1 0.120631 0.000774691 0.020189 0.000116 0 2.23914 0 2650 
809 1 0.022569 0.00113872 0.020657 0.000116 0 2.23917 0 2650 
1065 1 0.027926 0.00163937 0.020581 0.000423 0 2.23961 0 2650 
37 1 0.034376 0.00102703 0.020581 0.000116 0 2.23824 0 2650 
2085 1 0.051831 0.00137543 0.02068 0.000423 0 2.23965 0 2650 
1643 1 0.072452 0.00164643 0.020494 0.000423 0 2.23965 0 2650 
2372 1 0.083067 0.00105811 0.020627 0.000116 0 2.23917 0 2650 
1849 1 0.097369 0.0014602 0.02094 0.000423 0 2.23961 0 2650 
888 1 0.136044 0.00109258 0.020613 0.000423 0 2.23961 0 2650 
1861 1 0.14233 0.000954536 0.020248 0.000116 0 2.23849 0 2650 
501 1 0.149638 0.00104605 0.020687 4.2e-05 0 2.23441 0 2650 
231 1 0.151138 0.00117705 0.020606 0.000423 0 2.23963 0 2650 
1067 1 0.0165978 0.00193195 0.0206868 0.000423 -0.390084 2.45924 -0.821365 2650 
2139 1 0.0971018 0.00406194 0.0202414 0.000423 -3.3797 -1.7183 1.96296 2650 
2172 1 0.121251 0.000676964 0.021576 0.000116 0 2.23849 0 2650 
635 1 0.124814 0.000705564 0.0211715 0.000423 0.753107 -0.677414 6.96083 2650 
111 1 0.145579 0.000569516 0.021193 0.000116 0 2.23849 0 2650 
2451 1 0.048261 0.00102562 0.021077 4.2e-05 0 2.23441 0 2650 
15 1 0.048347 0.0013597 0.021217 0.000116 0 2.23849 0 2650 
746 1 0.081277 0.000950059 0.020981 0.000116 0 2.23849 0 2650 
429 1 0.08347 0.00103819 0.021246 0.000423 0 2.23963 0 2650 
1292 1 0.094998 0.000956061 0.021521 0.000116 0 2.23914 0 2650 
1669 1 0.13613 0.00099049 0.02153 0.000423 0 2.23951 0 2650 
2349 1 0.144223 0.00116105 0.021596 0.000423 0 2.23961 0 2650 
2094 1 0.153133 0.00172033 0.021671 0.000423 0 2.23965 0 2650 
1388 1 0.0467613 0.000215366 0.022276 0.000116 7.27226 0.272258 0 2650 
414 1 0.066167 0.000592807 0.021955 0.000116 0 2.23824 0 2650 
2096 1 0.096139 0.000744706 0.022521 4.2e-05 0 2.2374 0 2650 
2123 1 0.020135 0.00113417 0.022133 0.000423 0 2.23961 0 2650 
751 1 0.020676 0.000961251 0.022507 0.000116 0 2.23849 0 2650 
2210 1 0.034314 0.00095959 0.022213 0.000116 0 2.23917 0 2650 
2416 1 0.041036 0.00122823 0.021765 0.000423 0 2.23961 0 2650 
674 1 0.042926 0.00128622 0.021928 0.000656 0 2.23969 0 2650 
1243 1 0.061472 0.00130283 0.021782 4.2e-05 0 2.23579 0 2650 
493 1 0.126871 0.00132866 0.022504 0.000423 0 2.23951 0 2650 
1994 1 0.142649 0.00145316 0.022027 0.000423 0 2.23961 0 2650 
1560 1 0.145212 0.0015434 0.022301 0.000423 0 2.23965 0 2650 
249 1 0.022254 0.000580709 0.0233 0.000116 0 2.23849 0 2650 
993 1 0.028135 0.000848897 0.023309 0.000116 0 2.23815 0 2650 
2223 1 0.0634719 0.00052018 0.0227682 0.000423 -0.895355 -4.61929 -1.78423 2650 
2270 1 0.000832 0.00109995 0.023295 0.000423 0 2.23965 0 2650 
38 1 0.0176528 0.00144791 0.0229082 0.000423 0.390905 2.01984 0.823094 2650 
1986 1 0.066282 0.00122001 0.022706 4.2e-05 0 2.23441 0 2650 
2314 1 0.076991 0.00140223 0.022691 0.000116 0 2.23849 0 2650 
1246 1 0.080504 0.00133431 0.023289 0.000116 0 2.23825 0 2650 
1504 1 0.095192 0.00109258 0.022785 0.000116 0 2.23825 0 2650 
1895 1 0.107656 0.00128706 0.023279 4.2e-05 0 2.23729 0 2650 
1118 1 0.119151 0.00117391 0.022741 0.000116 0 2.23849 0 2650 
1642 1 0.137147 0.00109323 0.023316 0.000423 0 2.23965 0 2650 
646 1 0.140105 0.00128071 0.023238 0.000423 0 2.23961 0 2650 
82 1 0.154961 0.00121892 0.023145 0.000423 0 2.23951 0 2650 
923 1 0.161252 0.00106422 0.023014 0.000116 0 2.23849 0 2650 
1263 1 0.073086 0.000938046 0.023941 0.000423 0 2.23961 0 2650 
446 1 0.101555 0.000654307 0.023987 4.2e-05 0 2.2376 0 2650 
400 1 0.131378 0.000612255 0.023773 4.2e-05 0 2.23441 0 2650 
2115 1 0.016765 0.00102031 0.02409 0.000116 0 2.23824 0 2650 
518 1 0.03397 0.00111728 0.023721 0.000116 0 2.23914 0 2650 
1937 1 0.043278 0.00117251 0.023552 0.000116 0 2.23824 0 2650 
1228 1 0.050455 0.0016418 0.0242046 0.000116 -10.5319 4.07973 16.2441 2650 
1456 1 0.076694 0.00137537 0.023974 0.000116 0 2.23849 0 2650 
879 1 0.116971 0.00129043 0.023556 4.2e-05 0 2.23418 0 2650 
1812 1 0.145705 0.00115913 0.02396 0.000423 0 2.23963 0 2650 
1153 1 0.0218311 0.00298598 0.0235782 0.000116 -10.2965 11.8865 -5.41198 2650 
2136 1 0.002327 0.000582947 0.024891 0.000116 0 2.23849 0 2650 
2381 1 0.054499 0.000676964 0.024569 0.000116 0 2.23849 0 2650 
958 1 0.054851 0.000870349 0.024231 0.000116 0 2.23824 0 2650 
2056 1 0.156377 0.000298305 0.0245716 0.000116 0.234862 1.0986 -3.43682 2650 
828 1 0.159183 0.00087993 0.024535 0.000116 0 2.23914 0 2650 
1583 1 0.0231821 0.000973193 0.0242976 0.000423 -0.153549 2.05382 -0.0767161 2650 
339 1 0.035201 0.0011537 0.024381 0.000423 0 2.23965 0 2650 
617 1 0.041439 0.00156156 0.024608 0.000423 0 2.23951 0 2650 
1056 1 0.129981 0.00129553 0.024264 0.000656 0 2.23979 0 2650 
2269 1 0.138223 0.00141956 0.024436 0.000423 0 2.23961 0 2650 
47 1 0.085962 0.00174015 0.024809 0.000423 0 2.23961 0 2650 
544 1 0.096732 0.00184166 0.024122 0.000656 0 2.23969 0 2650 
1225 1 0.148005 0.00200388 0.024592 0.000656 0 2.23968 0 2650 
2375 1 0.039706 0.000784935 0.024993 0.000116 0 2.23917 0 2650 
2356 1 0.082785 0.000689989 0.025415 0.000116 0 2.23815 0 2650 
331 1 0.008847 0.00137171 0.025112 0.000116 0 2.23824 0 2650 
1935 1 0.054785 0.00139053 0.025329 0.000116 0 2.23815 0 2650 
1374 1 0.0633071 0.00115155 0.0253318 0.000423 -0.200178 2.24298 0.113202 2650 
719 1 0.0647946 0.00164729 0.0251686 0.000656 0.244649 2.443 0.295326 2650 
437 1 0.068747 0.00154862 0.024959 0.000656 0 2.23979 0 2650 
1104 1 0.096386 0.00150691 0.025692 0.000423 0 2.23961 0 2650 
1745 1 0.10678 0.00108007 0.025316 0.000423 0 2.23951 0 2650 
120 1 0.124076 0.00102408 0.025565 0.000423 0 2.23951 0 2650 
2009 1 0.136828 0.00122732 0.0252525 0.000656 0.00332919 2.2293 -0.0206489 2650 
2499 1 0.137558 0.00103456 0.025442 4.2e-05 0 2.23441 0 2650 
2409 1 0.045373 0.000633737 0.026375 0.000116 0 2.23825 0 2650 
2469 1 0.071532 0.00056869 0.025811 0.000116 0 2.23914 0 2650 
130 1 0.115638 0.000888255 0.026445 0.000116 0 2.23824 0 2650 
2126 1 0.133494 0.000873559 0.025818 4.2e-05 0 2.23579 0 2650 
1942 1 0.145658 0.000844493 0.025799 4.2e-05 0 2.23579 0 2650 
2283 1 0.075251 0.00112643 0.026091 0.000116 0 2.23815 0 2650 
930 1 0.077129 0.00120456 0.025773 0.000423 0 2.23961 0 2650 
1025 1 0.086945 0.00167337 0.025794 0.000656 0 2.23969 0 2650 
1319 1 0.091555 0.000948284 0.0258 0.000423 0 2.23961 0 2650 
631 1 0.153063 0.0013408 0.025957 0.000423 0 2.23948 0 2650 
86 1 0.158832 0.000996366 0.026032 0.000116 0 2.23914 0 2650 
2149 1 0.020829 0.000935909 0.02721 0.000116 0 2.23914 0 2650 
2030 1 0.02889 0.000704376 0.02685 0.000116 0 2.23815 0 2650 
817 1 0.075874 0.000606237 0.026873 0.000116 0 2.23824 0 2650 
441 1 0.136518 0.000419929 0.0271778 0.000116 -0.601663 1.16007 3.73175 2650 
1490 1 0.010825 0.00139334 0.026744 0.000423 0 2.23965 0 2650 
1340 1 0.0446602 0.00102945 0.0268383 0.000656 -5.25342 1.40212 -2.65164 2650 
1638 1 0.051593 0.00158826 0.026922 0.000656 0 2.23969 0 2650 
1777 1 0.057211 0.00131841 0.026905 0.000423 0 2.23948 0 2650 
1117 1 0.089455 0.00121576 0.026925 0.000423 0 2.23961 0 2650 
721 1 0.100979 0.00122486 0.0264609 0.000656 -6.0066 2.04279 -3.03619 2650 
2262 1 0.110514 0.00135941 0.026869 0.000423 0 2.23961 0 2650 
977 1 0.13334 0.00130269 0.026793 4.2e-05 0 2.23441 0 2650 
428 1 0.15624 0.00139026 0.0265892 0.000423 -0.00616357 2.16611 0.0901936 2650 
2405 1 0.119159 0.00255152 0.027205 0.000423 0 6.44183 0.102727 2650 
70 1 0.0450674 0.00275321 0.0266552 0.000423 -6.54319 5.47756 -1.65251 2650 
458 1 0.023778 0.000675622 0.02804 0.000116 0 2.23824 0 2650 
1195 1 0.159417 0.000773793 0.027491 4.2e-05 0 2.2374 0 2650 
1722 1 0.015485 0.00100813 0.02792 0.000423 0 2.23965 0 2650 
1929 1 0.092846 0.00137907 0.027856 0.000116 0 2.23825 0 2650 
1086 1 0.110601 0.0016733 0.027997 0.000423 0 2.23965 0 2650 
571 1 0.123616 0.00107274 0.027453 0.000423 0 2.23961 0 2650 
1400 1 0.131684 0.00138912 0.027456 0.000423 0 2.23951 0 2650 
2107 1 0.138375 0.00125085 0.027461 0.000116 0 2.23824 0 2650 
266 1 0.0796837 0.00183361 0.027512 0.000423 -3.75124 4.06963 0 2650 
23 1 0.0930636 0.00334039 0.0280731 0.000423 1.54434 6.27892 1.09291 2650 
1076 1 0.006655 0.000542434 0.028645 4.2e-05 0 2.23763 0 2650 
1662 1 0.009982 0.000684233 0.028422 0.000116 0 2.23815 0 2650 
2059 1 0.066155 0.000512027 0.028516 4.2e-05 0 2.23441 0 2650 
318 1 0.0776979 0.00092879 0.0283432 0.000423 -0.733189 1.98562 -0.904818 2650 
1320 1 0.088834 0.000778581 0.028395 0.000116 0 2.23824 0 2650 
882 1 0.08832 0.000889184 0.028089 0.000116 0 2.23815 0 2650 
1562 1 0.106581 0.000785903 0.028147 4.2e-05 0 2.23729 0 2650 
2058 1 0.131876 0.000424961 0.0285368 0.000423 0.102184 0.31798 -2.00204 2650 
567 1 0.012167 0.00123294 0.028577 0.000116 0 2.23824 0 2650 
1740 1 0.044597 0.00106696 0.028771 0.000116 0 2.23815 0 2650 
2359 1 0.065394 0.00125902 0.028807 0.000656 0 2.23969 0 2650 
261 1 0.068779 0.000999448 0.028837 0.000423 0 2.23951 0 2650 
271 1 0.023654 0.000894097 0.02955 0.000116 0 2.23849 0 2650 
944 1 0.0566124 0.00062925 0.0291985 0.000116 4.01799 1.62777 -3.43374 2650 
682 1 0.088745 0.00059121 0.029072 0.000116 0 2.23825 0 2650 
2494 1 0.112264 0.000571366 0.029261 0.000116 0 2.23815 0 2650 
1470 1 0.12141 0.000861971 0.029441 4.2e-05 0 2.23729 0 2650 
66 1 0.028179 0.00123752 0.028997 0.000423 0 2.23963 0 2650 
1763 1 0.047656 0.00164513 0.029583 0.000423 0 2.23963 0 2650 
956 1 0.077236 0.00127399 0.029149 0.000423 0 2.23961 0 2650 
1622 1 0.148534 0.00107591 0.028927 0.000116 0 2.23815 0 2650 
431 1 0.152539 0.00126993 0.029046 0.000656 0 2.23979 0 2650 
1930 1 0.155149 0.000989619 0.029092 0.000116 0 2.23825 0 2650 
1915 1 0.030283 0.0020074 0.029516 0.000656 0 2.23969 0 2650 
2480 1 0.014403 0.000923019 0.029889 0.000423 0 2.23965 0 2650 
620 1 0.130104 0.000923305 0.029694 0.000423 0 2.23951 0 2650 
709 1 0.0731 0.00125609 0.030266 4.2e-05 0 2.23441 0 2650 
1177 1 0.0788833 0.00138985 0.0298061 0.000423 0.940171 1.44594 1.16025 2650 
1489 1 0.085601 0.00171295 0.029983 0.000423 0 2.23961 0 2650 
2170 1 0.091337 0.00160297 0.030379 0.000656 0 2.23968 0 2650 
71 1 0.106422 0.00101003 0.030376 0.000423 0 2.23961 0 2650 