ITEM: TIMESTEP
35000
ITEM: NUMBER OF ATOMS
2495
ITEM: BOX BOUNDS ff ff ff
-0.005905 0.167905
-0.000656 0.011154
-0.005905 0.167905
ITEM: ATOMS id type x y z radius vx vy vz density 
2317 1 0.014297 0.000603384 0.001071 0.000423 0 2.23961 0 2650 
1551 1 0.0854369 0.00083444 0.000966472 0.000656 0.551287 1.97103 -0.133068 2650 
84 1 0.108185 0.00078549 0.001133 0.000656 0 2.23968 0 2650 
2078 1 0.019324 0.00087007 0.000953 0.000116 0 -7 0 2650 
1188 1 0.020639 0.00112507 0.000927 0.000116 0 -7 0 2650 
820 1 0.110174 0.00151007 0.001096 0.000656 0 -7 0 2650 
1756 1 0.004144 0.00167807 0.000832 0.000423 0 -7 0 2650 
65 1 0.027038 0.00199007 0.001133 0.000116 0 -7 0 2650 
2403 1 0.006528 0.000579708 0.001419 0.000423 0 2.23961 0 2650 
1432 1 0.016035 0.000604664 0.001465 0.000423 0 2.23961 0 2650 
2391 1 0.018068 0.00024507 0.001955 4.2e-05 0 -7 0 2650 
213 1 0.044271 0.000412597 0.001469 0.000423 0 2.60675 0 2650 
1136 1 0.0940003 0.000380564 0.00161663 0.000423 0.000565125 1.96888 0.053263 2650 
2340 1 0.031543 0.00117007 0.001662 0.000116 0 -7 0 2650 
692 1 0.038362 0.00095407 0.001808 0.000116 0 -7 0 2650 
1974 1 0.073895 0.00121407 0.001874 0.000423 0 -7 0 2650 
886 1 0.0836277 0.00109096 0.00154006 0.000423 -1.18665 -6.65445 0.444127 2650 
666 1 0.0843779 0.000865799 0.00121855 0.000423 -0.86956 -6.34312 0.0521945 2650 
355 1 0.111145 0.00142607 0.001866 0.000423 0 -7 0 2650 
2142 1 0.126502 0.00208607 0.001576 0.000656 0 -7 0 2650 
985 1 0.116858 0.000119902 0.002415 0.000116 0 2.23917 0 2650 
1776 1 0.021661 0.000222551 0.002691 0.000116 0 2.23849 0 2650 
240 1 0.051408 0.000722346 0.00264626 0.000423 -1.33738 -4.30558 -1.8943 2650 
1422 1 0.104327 0.000282645 0.002201 0.000116 0 2.23815 0 2650 
652 1 0.10982 0.000407884 0.002424 0.000423 0 -6.18239 0 2650 
94 1 0.127492 0.000161466 0.002577 0.000116 0 2.23825 0 2650 
1752 1 0.130965 0.00082407 0.002114 4.2e-05 0 -7 0 2650 
1274 1 0.018553 0.00145207 0.002496 0.000423 0 -7 0 2650 
2298 1 0.077914 0.00112507 0.002756 0.000116 0 -7 0 2650 
1138 1 0.101697 0.00152407 0.002616 0.000423 0 -7 0 2650 
1066 1 0.011114 0.00183407 0.002419 0.000116 0 -7 0 2650 
2049 1 0.084987 0.00189707 0.002439 0.000116 0 -7 0 2650 
1664 1 0.158101 0.00200807 0.002099 0.000116 0 -7 0 2650 
254 1 0.0943 0.000128212 0.003434 0.000116 0 2.23815 0 2650 
1524 1 0.0221145 0.000574906 0.00304412 0.000423 0.080252 2.08615 -0.0332681 2650 
300 1 0.0519449 0.000420734 0.00340662 0.000423 1.317 -0.374456 1.86543 2650 
2174 1 0.086202 0.000199231 0.003033 0.000116 0 2.23914 0 2650 
1208 1 0.0216155 0.00092417 0.00325099 0.000116 -3.89137 0.441907 1.61315 2650 
2182 1 0.022247 0.00130707 0.003465 4.2e-05 0 -7 0 2650 
2089 1 0.055205 0.00120907 0.003367 4.2e-05 0 -7 0 2650 
2459 1 0.074324 0.00139907 0.003444 0.000116 0 -7 0 2650 
840 1 0.080646 0.00089507 0.003038 0.000116 0 -7 0 2650 
658 1 0.150029 0.00180307 0.003124 0.000116 0 -7 0 2650 
980 1 0.06939 0.000892995 0.003991 0.000656 0 2.23968 0 2650 
824 1 0.126159 0.000561463 0.003789 0.000423 0 2.23948 0 2650 
648 1 0.133877 0.000495877 0.004248 0.000423 0.0115735 2.2119 0.00380445 2650 
1356 1 0.137206 0.000746819 0.00382109 0.000423 1.37945 -4.05224 -1.85569 2650 
1932 1 0.141016 0.000771093 0.003702 0.000656 0 2.23969 0 2650 
1816 1 0.147786 0.000385656 0.003726 0.000423 0 2.50644 0 2650 
361 1 0.001268 0.00139207 0.003827 0.000116 0 -7 0 2650 
365 1 0.014662 0.00164107 0.003871 0.000656 0 -7 0 2650 
1370 1 0.042611 0.00086307 0.00377 0.000116 0 -7 0 2650 
2047 1 0.04232 0.00133007 0.003987 0.000423 0 -7 0 2650 
1764 1 0.1048 0.00104407 0.003935 0.000423 0 -7 0 2650 
95 1 0.133588 0.000937333 0.00415297 0.000116 -0.561195 -5.65647 -0.184476 2650 
585 1 0.143349 0.00144607 0.004178 4.2e-05 0 -7 0 2650 
1606 1 0.035843 0.00193607 0.003632 0.000423 0 -7 0 2650 
892 1 0.022369 0.000599534 0.004922 0.000423 0 2.23948 0 2650 
573 1 0.117631 0.00011707 0.005072 4.2e-05 0 -7 0 2650 
1123 1 0.134858 0.00046207 0.004516 0.000423 0 -7 0 2650 
916 1 0.136673 0.000424059 0.00453815 0.000423 -1.264 0.226579 1.70038 2650 
345 1 0.146378 0.000425495 0.004988 0.000423 0 2.23961 0 2650 
1679 1 0.042503 0.00150907 0.005076 0.000116 0 -7 0 2650 
2366 1 0.108993 0.00117707 0.004482 0.000423 0 -7 0 2650 
2258 1 0.115895 0.00155507 0.00444 0.000656 0 -7 0 2650 
1883 1 0.158442 0.00101707 0.004964 0.000423 0 -7 0 2650 
176 1 0.001438 0.00208907 0.00443 0.000116 0 -7 0 2650 
424 1 0.061715 0.00201407 0.005053 0.000423 0 -7 0 2650 
188 1 0.064849 0.00169607 0.005091 0.000423 0 -7 0 2650 
1277 1 0.075006 0.00205107 0.005099 0.000116 0 -7 0 2650 
1635 1 0.088691 0.00180807 0.004515 0.000423 0 -7 0 2650 
1814 1 0.131875 0.00202107 0.004611 0.000116 0 -7 0 2650 
2050 1 0.0534347 0.00293451 0.00453016 0.000423 -5.51865 -1.1639 -1.19652 2650 
1061 1 0.022038 0.000435669 0.0057214 0.000423 0 1.83922 -8.83922 2650 
1806 1 0.067083 0.000556984 0.005229 0.000423 0 2.23948 0 2650 
1040 1 0.099414 0.000609774 0.005841 0.000423 0 2.23951 0 2650 
619 1 0.005763 0.00087307 0.005778 0.000116 0 -7 0 2650 
1446 1 0.033447 0.00105207 0.005416 0.000116 0 -7 0 2650 
779 1 0.0575155 0.0009694 0.00541492 0.000423 3.85388 4.10676 0.835576 2650 
2305 1 0.06562 0.00151007 0.005446 0.000116 0 -7 0 2650 
1659 1 0.055425 0.00212807 0.005474 0.000116 0 -7 0 2650 
1820 1 0.09489 0.000124568 0.006065 4.2e-05 0 2.23579 0 2650 
831 1 0.025684 0.000375589 0.00637 0.000423 0 -0.523662 0 2650 
1410 1 0.150839 0.00032007 0.006562 4.2e-05 0 -7 0 2650 
1627 1 0.076565 0.00129407 0.006259 0.000116 0 -7 0 2650 
2111 1 0.136698 0.00123507 0.006144 0.000423 0 -7 0 2650 
104 1 0.020242 0.00172907 0.006244 0.000423 0 -7 0 2650 
1819 1 0.038335 0.00192407 0.006672 0.000116 0 -7 0 2650 
628 1 0.073589 0.00202207 0.006621 0.000423 0 -7 0 2650 
218 1 0.080191 0.00209407 0.006156 0.000423 0 -7 0 2650 
1963 1 0.083996 0.00190607 0.006477 4.2e-05 0 -7 0 2650 
1852 1 0.154146 0.00212107 0.005953 0.000423 0 -7 0 2650 
1909 1 0.018376 0.00070007 0.007196 0.000423 0 -7 0 2650 
2425 1 0.026329 0.00062507 0.006758 0.000116 0 -7 0 2650 
1531 1 0.029084 0.00076007 0.007413 0.000423 0 -7 0 2650 
1307 1 0.035736 0.000103797 0.006764 0.000116 0 -1.94712 0 2650 
2234 1 0.053132 0.000600509 0.007104 0.000423 0 2.23965 0 2650 
352 1 0.101417 0.000500362 0.007459 0.000423 0 2.23961 0 2650 
2128 1 0.115633 0.00039707 0.006908 0.000116 0 -7 0 2650 
960 1 0.00685 0.00208507 0.006958 0.000116 0 -7 0 2650 
1233 1 0.008632 0.00180107 0.007405 0.000423 0 -7 0 2650 
1810 1 0.043944 0.00196307 0.007253 0.000116 0 -7 0 2650 
575 1 0.113515 0.00175407 0.006827 0.000423 0 -7 0 2650 
1387 1 0.140551 0.00194507 0.007306 0.000423 0 -7 0 2650 
554 1 0.003153 0.00016607 0.007568 4.2e-05 0 -7 0 2650 
917 1 0.028712 0.00036907 0.008079 0.000116 0 -7 0 2650 
706 1 0.0609455 0.000694462 0.00802426 0.000423 0.265473 2.54909 -0.409458 2650 
18 1 0.083283 0.00045607 0.007617 0.000116 0 -7 0 2650 
1960 1 0.094905 0.000491725 0.008097 0.000423 0 2.23963 0 2650 
1159 1 0.150815 0.00079107 0.007685 0.000423 0 -7 0 2650 
881 1 0.115487 0.00245168 0.00774546 0.000656 0.207126 -0.626163 -2.2878 2650 
2093 1 0.133208 0.00211307 0.007989 0.000423 0 -7 0 2650 
1517 1 0.004885 0.000426775 0.008365 0.000423 0 2.23963 0 2650 
366 1 0.039524 0.000611383 0.008361 0.000423 0 2.23961 0 2650 
396 1 0.0938444 0.000468446 0.00905682 4.2e-05 -0.324831 3.51971 25.1146 2650 
200 1 0.105457 0.00049107 0.008332 0.000423 0 -7 0 2650 
1353 1 0.135932 0.000677026 0.009076 0.000656 0 2.23969 0 2650 
2121 1 0.1556 0.00049107 0.008517 4.2e-05 0 -7 0 2650 
2385 1 0.028383 0.00102007 0.008775 0.000423 0 -7 0 2650 
1946 1 0.09912 0.00095707 0.009084 4.2e-05 0 -7 0 2650 
1173 1 0.152246 0.00107307 0.009042 4.2e-05 0 -7 0 2650 
967 1 0.045216 0.00204007 0.009072 0.000423 0 -7 0 2650 
337 1 0.078317 0.00211107 0.00903 0.000656 0 -7 0 2650 
508 1 0.101133 0.00165907 0.008449 0.000656 0 -7 0 2650 
552 1 0.105392 0.00179007 0.008479 0.000423 0 -7 0 2650 
157 1 0.135811 0.00191507 0.00903 4.2e-05 0 -7 0 2650 
5 1 0.137396 0.00174707 0.008337 0.000116 0 -7 0 2650 
2264 1 0.159154 0.00172107 0.008714 0.000116 0 -7 0 2650 
404 1 0.117705 0.000595055 0.009716 0.000423 0 2.23948 0 2650 
1412 1 0.145768 0.00054607 0.009397 0.000116 0 -7 0 2650 
2197 1 0.028611 0.00164207 0.009305 0.000423 0 -7 0 2650 
165 1 0.041117 0.00138507 0.009537 0.000116 0 -7 0 2650 
1881 1 0.119492 0.00116607 0.009255 0.000656 0 -7 0 2650 
2015 1 0.098067 0.00169107 0.009838 0.000116 0 -7 0 2650 
990 1 0.102077 0.00239043 0.00962779 0.000116 14.0617 -4.82552 -14.5256 2650 
1194 1 0.138262 0.00172007 0.009231 0.000116 0 -7 0 2650 
1688 1 0.141376 0.00211307 0.009894 0.000656 0 -7 0 2650 
623 1 0.017229 0.000403609 0.010022 0.000423 0 2.83963 0 2650 
1163 1 0.038505 0.00014307 0.010104 4.2e-05 0 -7 0 2650 
2294 1 0.067079 0.000548674 0.010632 0.000423 0 2.23961 0 2650 
1335 1 0.129495 0.00016607 0.009967 0.000116 0 -7 0 2650 
866 1 0.150967 0.000377992 0.010212 0.000423 0 1.50174 0 2650 
177 1 0.102003 0.00124507 0.01063 0.000423 0 -7 0 2650 
1418 1 0.11782 0.00103407 0.010281 0.000116 0 -7 0 2650 
2145 1 0.122214 0.00110707 0.010227 0.000423 0 -7 0 2650 
691 1 0.065911 0.00172407 0.010344 0.000423 0 -7 0 2650 
1455 1 0.069014 0.00203207 0.010395 0.000656 0 -7 0 2650 
59 1 0.080657 0.00190107 0.010435 0.000656 0 -7 0 2650 
784 1 0.122883 0.00197007 0.009976 0.000423 0 -7 0 2650 
212 1 0.148551 0.00211907 0.010262 0.000423 0 -7 0 2650 
1424 1 0.018389 0.000405278 0.010884 0.000423 0 -5.97599 0 2650 
2442 1 0.061003 0.000106551 0.011176 0.000116 0 2.67384 0 2650 
1984 1 0.076488 0.00015007 0.010928 0.000116 0 -7 0 2650 
278 1 0.078922 0.00019345 0.011437 0.000116 0 2.23849 0 2650 
2046 1 0.131482 0.000193795 0.01085 0.000116 0 2.23917 0 2650 
1134 1 0.141049 0.00050007 0.010696 4.2e-05 0 -7 0 2650 
859 1 0.020765 0.00093507 0.011218 0.000423 0 -7 0 2650 
1548 1 0.098569 0.00136807 0.010796 0.000116 0 -7 0 2650 
1842 1 0.128813 0.00154607 0.011369 0.000116 0 -7 0 2650 
650 1 0.131566 0.00130907 0.010901 4.2e-05 0 -7 0 2650 
1717 1 0.139512 0.00129407 0.011002 4.2e-05 0 -7 0 2650 
2373 1 0.056707 0.00168507 0.011468 4.2e-05 0 -7 0 2650 
972 1 0.159836 0.00166007 0.011222 0.000423 0 -7 0 2650 
1535 1 0.115195 0.00315213 0.0109761 0.000423 -0.523904 9.84484 5.78676 2650 
1112 1 0.151852 0.000102573 0.012176 4.2e-05 0 2.2374 0 2650 
460 1 0.003722 0.00084307 0.011587 0.000423 0 -7 0 2650 
1542 1 0.041337 0.000552833 0.011979 0.000423 0 2.23961 0 2650 
1236 1 0.093684 0.00079607 0.011569 0.000423 0 -7 0 2650 
67 1 0.096194 0.000789337 0.011854 0.000656 0 2.23979 0 2650 
2205 1 0.125225 0.00016978 0.012172 0.000116 0 2.23824 0 2650 
966 1 0.140948 0.000239805 0.011888 0.000116 0 2.23825 0 2650 
2067 1 0.141648 0.000578421 0.011964 0.000423 0 2.23951 0 2650 
2390 1 0.033791 0.00159207 0.012191 0.000116 0 -7 0 2650 
219 1 0.04317 0.00093407 0.011985 0.000116 0 -7 0 2650 
1899 1 0.094192 0.00131407 0.011639 0.000116 0 -7 0 2650 
605 1 0.119613 0.00138807 0.011647 0.000116 0 -7 0 2650 
1886 1 0.024919 0.00210807 0.01171 0.000116 0 -7 0 2650 
1733 1 0.093161 0.00190007 0.012041 0.000116 0 -7 0 2650 
597 1 0.052746 0.00058007 0.012275 0.000423 0 -7 0 2650 
2040 1 0.0713752 0.000323895 0.0126921 0.000116 -0.83955 4.01824 -1.40681 2650 
723 1 0.135627 0.000168499 0.012992 0.000116 0 2.23815 0 2650 
1396 1 0.149437 0.000569153 0.012358 0.000423 0 2.23965 0 2650 
197 1 0.001978 0.00142207 0.012413 4.2e-05 0 -7 0 2650 
2495 1 0.004327 0.00122307 0.013029 0.000423 0 -7 0 2650 
738 1 0.077063 0.00131607 0.012617 0.000423 0 -7 0 2650 
294 1 0.083181 0.00136407 0.012766 0.000423 0 -7 0 2650 
2175 1 0.099879 0.00149007 0.012522 0.000116 0 -7 0 2650 
895 1 0.045265 0.00169107 0.012269 0.000656 0 -7 0 2650 
489 1 0.047522 0.00211607 0.012445 0.000423 0 -7 0 2650 
1205 1 0.074386 0.00202007 0.012556 0.000116 0 -7 0 2650 
794 1 0.101794 0.00211307 0.012964 0.000656 0 -7 0 2650 
1598 1 0.140638 0.00203007 0.012616 0.000116 0 -7 0 2650 
1284 1 0.020685 0.000576831 0.013078 0.000423 0 2.23963 0 2650 
2243 1 0.046104 0.000898755 0.013449 0.000656 0 2.23969 0 2650 
2120 1 0.056455 0.000519239 0.013138 0.000423 0 2.23961 0 2650 
2436 1 0.084941 0.00039507 0.013757 0.000116 0 -7 0 2650 
1833 1 0.115349 0.000399106 0.013093 0.000423 0 2.88182 0 2650 
1601 1 0.129629 0.00069207 0.013243 0.000116 0 -7 0 2650 
1649 1 0.14757 0.000440213 0.013797 0.000423 0 2.23963 0 2650 
265 1 0.051603 0.00155207 0.013845 0.000116 0 -7 0 2650 
459 1 0.065523 0.00156707 0.013362 0.000116 0 -7 0 2650 
1385 1 0.09883 0.00132507 0.013076 0.000116 0 -7 0 2650 
1719 1 0.032653 0.00177807 0.013588 0.000423 0 -7 0 2650 
954 1 0.0719253 0.00201689 0.0136139 0.000656 0.00663409 -6.96921 0.0111166 2650 
2302 1 0.075182 0.00170207 0.013287 0.000423 0 -7 0 2650 
1241 1 0.080082 0.00204407 0.01365 0.000116 0 -7 0 2650 
1348 1 0.132843 0.00182907 0.013729 0.000116 0 -7 0 2650 
1257 1 0.1497 0.00014516 0.014178 0.000116 0 2.23824 0 2650 
610 1 0.039545 0.00061107 0.013854 0.000423 0 -7 0 2650 
412 1 0.055062 0.000565311 0.014355 0.000423 0 2.23961 0 2650 
1452 1 0.057611 0.00076907 0.014495 0.000116 0 -7 0 2650 
1458 1 0.142812 0.00017607 0.014111 0.000116 0 -7 0 2650 
1801 1 0.010927 0.00097907 0.014115 0.000423 0 -7 0 2650 
27 1 0.030797 0.00128207 0.014592 0.000116 0 -7 0 2650 
48 1 0.035058 0.00127107 0.013916 0.000116 0 -7 0 2650 
1135 1 0.075772 0.00134307 0.014316 0.000423 0 -7 0 2650 
630 1 0.10425 0.00157707 0.014428 0.000116 0 -7 0 2650 
2097 1 0.157939 0.00120107 0.014523 4.2e-05 0 -7 0 2650 
152 1 0.048531 0.00206607 0.014359 0.000116 0 -7 0 2650 
1931 1 0.102655 0.00210507 0.014112 4.2e-05 0 -7 0 2650 
790 1 0.126922 0.00204507 0.01428 0.000116 0 -7 0 2650 
1790 1 0.014573 0.000221623 0.015413 0.000116 0 2.23914 0 2650 
211 1 0.124407 0.000472207 0.0149 0.000423 0 2.23961 0 2650 
2335 1 0.133151 0.00072607 0.01467 0.000423 0 -7 0 2650 
146 1 0.156933 0.000630833 0.015215 0.000656 0 2.77727 0 2650 
724 1 0.051952 0.00147807 0.015061 0.000116 0 -7 0 2650 
616 1 0.060796 0.00116107 0.014808 0.000116 0 -7 0 2650 
1207 1 0.0966287 0.00154785 0.0152562 0.000656 -0.0777498 -7.01202 0.0803147 2650 
1002 1 0.008661 0.00197307 0.015305 0.000116 0 -7 0 2650 
1998 1 0.04633 0.00181407 0.01483 4.2e-05 0 -7 0 2650 
1308 1 0.051143 0.00171207 0.015138 0.000116 0 -7 0 2650 
1484 1 0.053459 0.00197307 0.015164 0.000116 0 -7 0 2650 
1160 1 0.068631 0.00183607 0.014917 0.000423 0 -7 0 2650 
2042 1 0.087817 0.00186507 0.015033 0.000116 0 -7 0 2650 
314 1 0.09027 0.000117021 0.016032 0.000116 0 2.23815 0 2650 
1673 1 0.014714 0.00072907 0.015963 0.000423 0 -7 0 2650 
2091 1 0.104905 0.000769499 0.016209 0.000656 0 2.2398 0 2650 
783 1 0.124383 0.000582234 0.01615 0.000656 0 -0.324232 0 2650 
711 1 0.0252042 0.0014104 0.0160909 0.000423 -0.0664005 -7.03815 0.0555963 2650 
934 1 0.0258418 0.00177674 0.0155571 0.000423 0.0664005 -6.96185 -0.0555963 2650 
64 1 0.050143 0.00173507 0.015685 0.000116 0 -7 0 2650 
1228 1 0.0559462 0.00161905 0.0157351 0.000116 -12.4085 -12.759 19.1385 2650 
2177 1 0.11132 0.00207407 0.015853 0.000423 0 -7 0 2650 
418 1 0.149012 0.00185007 0.015862 0.000423 0 -7 0 2650 
587 1 0.04028 6.06759e-05 0.016356 4.2e-05 0 2.23441 0 2650 
1602 1 0.042847 0.000137815 0.016354 0.000116 0 2.23917 0 2650 
1440 1 0.051411 0.000733018 0.016331 0.000656 0 2.23969 0 2650 
1809 1 0.084202 0.00070807 0.016295 0.000423 0 -7 0 2650 
1979 1 0.148755 0.000398282 0.016686 0.000423 0 2.88274 0 2650 
1071 1 0.03269 0.00200107 0.016623 0.000116 0 -7 0 2650 
57 1 0.057367 0.00205607 0.016604 0.000423 0 -7 0 2650 
2246 1 0.079128 0.00201107 0.016383 4.2e-05 0 -7 0 2650 
1258 1 0.086891 0.00189207 0.016661 0.000423 0 -7 0 2650 
198 1 0.073518 0.000432214 0.017315 0.000423 0 2.23961 0 2650 
505 1 0.079356 0.00084007 0.017099 0.000116 0 -7 0 2650 
1537 1 0.088848 0.00080507 0.017169 0.000423 0 -7 0 2650 
1255 1 0.102689 0.000437254 0.0173767 0.000423 2.61258 1.7484 -0.751688 2650 
897 1 0.133624 0.00017684 0.017326 0.000116 0 2.23914 0 2650 
582 1 0.146554 0.000506532 0.0171978 0.000423 -1.90158 -1.93557 -0.0808171 2650 
413 1 0.0165673 0.00108087 0.0174118 0.000656 0.417779 -5.88259 -0.892294 2650 
2192 1 0.0333154 0.0014585 0.0175327 0.000656 -6.87493 5.02947 -1.31107 2650 
2474 1 0.083353 0.00101507 0.017263 0.000116 0 -7 0 2650 
290 1 0.090462 0.00126407 0.017451 4.2e-05 0 -7 0 2650 
922 1 0.101383 0.0015811 0.0175961 0.000423 -0.158534 4.66164 -0.876317 2650 
1481 1 0.103413 0.00155007 0.017641 0.000116 0 -7 0 2650 
753 1 0.106579 0.00133507 0.017074 0.000116 0 -7 0 2650 
1589 1 0.13054 0.00143207 0.01743 0.000116 0 -7 0 2650 
88 1 0.147058 0.00120523 0.0172192 0.000423 1.90158 -2.82495 0.0808171 2650 
1739 1 0.08215 0.00191507 0.01734 4.2e-05 0 -7 0 2650 
269 1 0.115081 0.00171307 0.017289 0.000116 0 -7 0 2650 
1439 1 0.160999 0.00172707 0.017183 4.2e-05 0 -7 0 2650 
600 1 0.0161898 0.00045097 0.0182182 0.000423 -1.55825 -1.92814 3.32811 2650 
943 1 0.039469 0.000283604 0.018546 0.000116 0 2.23815 0 2650 
2486 1 0.042163 0.00063807 0.018514 0.000423 0 -7 0 2650 
1887 1 0.063275 0.000440213 0.018064 0.000423 0 2.23963 0 2650 
1304 1 0.082867 0.00063207 0.018006 0.000423 0 -7 0 2650 
1211 1 0.099148 0.00074007 0.018421 0.000116 0 -7 0 2650 
359 1 0.125342 0.00074907 0.018465 0.000116 0 -7 0 2650 
1140 1 0.138457 0.00153167 0.0178468 0.000423 0.0943841 -7.03255 0.333599 2650 
1989 1 0.0405366 0.00399233 0.0185942 0.000656 10.1656 1.11628 1.1651 2650 
1129 1 0.030015 0.000150594 0.019214 0.000116 0 2.23815 0 2650 
1271 1 0.034605 0.000466446 0.019326 0.000423 0 2.23951 0 2650 
2290 1 0.058947 0.00078869 0.018645 0.000656 0 2.23969 0 2650 
1782 1 0.109585 0.00061407 0.018854 0.000423 0 -7 0 2650 
103 1 0.134585 0.000280751 0.01865 0.000116 0 2.23849 0 2650 
72 1 0.01798 0.00094007 0.019191 0.000116 0 -7 0 2650 
1058 1 0.033484 0.00094107 0.018874 0.000116 0 -7 0 2650 
770 1 0.087399 0.00138207 0.018895 0.000116 0 -7 0 2650 
976 1 0.091588 0.00098007 0.019221 0.000116 0 -7 0 2650 
217 1 0.11624 0.00133407 0.01924 0.000116 0 -7 0 2650 
2139 1 0.098824 0.00474868 0.0192411 0.000423 -4.64777 5.37058 2.69946 2650 
467 1 0.008277 0.000412597 0.020141 0.000423 0 2.60675 0 2650 
491 1 0.037832 0.00020307 0.020112 0.000116 0 -7 0 2650 
863 1 0.056957 0.000575872 0.019571 0.000423 0 2.23965 0 2650 
2453 1 0.070332 0.000283362 0.019926 0.000116 0 2.23917 0 2650 
635 1 0.124633 0.00061407 0.019499 0.000423 0 -7 0 2650 
1380 1 0.012312 0.00139907 0.019777 0.000423 0 -7 0 2650 
255 1 0.111674 0.00095107 0.019727 0.000423 0 -7 0 2650 
1191 1 0.147173 0.00086807 0.019927 0.000423 0 -7 0 2650 
327 1 0.019879 0.00175007 0.020058 0.000423 0 -7 0 2650 
2423 1 0.0361324 0.00223736 0.0197685 0.000423 -0.524783 -4.75206 2.48221 2650 
1941 1 0.102976 0.00165107 0.019466 0.000116 0 -7 0 2650 
809 1 0.022569 0.00035407 0.020657 0.000116 0 -7 0 2650 
1065 1 0.027926 0.000519559 0.020581 0.000423 0 2.23961 0 2650 
37 1 0.034376 0.00070207 0.020581 0.000116 0 -7 0 2650 
2085 1 0.051831 0.00071007 0.02068 0.000423 0 -7 0 2650 
1643 1 0.072452 0.0005266 0.020494 0.000423 0 2.23965 0 2650 
2372 1 0.083067 0.00060607 0.020627 0.000116 0 -7 0 2650 
1849 1 0.097369 0.00044507 0.02094 0.000423 0 -7 0 2650 
501 1 0.149638 0.00037307 0.020687 4.2e-05 0 -7 0 2650 
2433 1 0.120631 0.00149207 0.020189 0.000116 0 -7 0 2650 
888 1 0.136044 0.00159407 0.020613 0.000423 0 -7 0 2650 
1861 1 0.14233 0.00092907 0.020248 0.000116 0 -7 0 2650 
231 1 0.151138 0.00133007 0.020606 0.000423 0 -7 0 2650 
1493 1 0.014484 0.00208107 0.020771 0.000423 0 -7 0 2650 
2354 1 0.014959 0.00205107 0.020276 0.000116 0 -7 0 2650 
1217 1 0.018898 0.00210907 0.020259 0.000423 0 -7 0 2650 
2245 1 0.084222 0.00170907 0.020706 0.000116 0 -7 0 2650 
1067 1 0.0167928 0.00070233 0.0210975 0.000423 -0.390084 2.45924 -0.821365 2650 
15 1 0.048347 0.000240459 0.021217 0.000116 0 2.23849 0 2650 
2451 1 0.048261 0.00043707 0.021077 4.2e-05 0 -7 0 2650 
2094 1 0.153133 0.000600509 0.021671 0.000423 0 2.23965 0 2650 
746 1 0.081277 0.00094307 0.020981 0.000116 0 -7 0 2650 
1292 1 0.094998 0.00092507 0.021521 0.000116 0 -7 0 2650 
2349 1 0.144223 0.00138007 0.021596 0.000423 0 -7 0 2650 
429 1 0.08347 0.00176407 0.021246 0.000423 0 -7 0 2650 
2172 1 0.121251 0.00179707 0.021576 0.000116 0 -7 0 2650 
1669 1 0.13613 0.00191307 0.02153 0.000423 0 -7 0 2650 
111 1 0.145579 0.00213307 0.021193 0.000116 0 -7 0 2650 
38 1 0.0174573 0.000437994 0.0224967 0.000423 0.390905 2.01984 0.823094 2650 
1388 1 0.04315 0.000106324 0.022276 0.000116 0 -3.95152 0 2650 
1243 1 0.061472 0.000184934 0.021782 4.2e-05 0 2.23579 0 2650 
493 1 0.126871 0.00085607 0.022504 0.000423 0 -7 0 2650 
1994 1 0.142649 0.00046707 0.022027 0.000423 0 -7 0 2650 
1560 1 0.145212 0.000423576 0.022301 0.000423 0 2.23965 0 2650 
2123 1 0.020135 0.00146407 0.022133 0.000423 0 -7 0 2650 
751 1 0.020676 0.00090807 0.022507 0.000116 0 -7 0 2650 
2210 1 0.034314 0.00091407 0.022213 0.000116 0 -7 0 2650 
2416 1 0.041036 0.00117007 0.021765 0.000423 0 -7 0 2650 
2096 1 0.096139 0.00132007 0.022521 4.2e-05 0 -7 0 2650 
313 1 0.12468 0.00107907 0.022334 0.000116 0 -7 0 2650 
674 1 0.042926 0.00182007 0.021928 0.000656 0 -7 0 2650 
414 1 0.066167 0.00206007 0.021955 0.000116 0 -7 0 2650 
1986 1 0.066282 0.00010281 0.022706 4.2e-05 0 2.23441 0 2650 
2314 1 0.076991 0.00028299 0.022691 0.000116 0 2.23849 0 2650 
1246 1 0.080504 0.000215184 0.023289 0.000116 0 2.23825 0 2650 
1504 1 0.095192 0.00049707 0.022785 0.000116 0 -7 0 2650 
1895 1 0.107656 0.00016841 0.023279 4.2e-05 0 2.23729 0 2650 
1118 1 0.119151 0.00024307 0.022741 0.000116 0 -7 0 2650 
923 1 0.161252 0.00058607 0.023014 0.000116 0 -7 0 2650 
2270 1 0.000832 0.00157107 0.023295 0.000423 0 -7 0 2650 
993 1 0.028135 0.00125907 0.023309 0.000116 0 -7 0 2650 
1642 1 0.137147 0.00159207 0.023316 0.000423 0 -7 0 2650 
646 1 0.140105 0.00100607 0.023238 0.000423 0 -7 0 2650 
82 1 0.154961 0.00119907 0.023145 0.000423 0 -7 0 2650 
249 1 0.022254 0.00209807 0.0233 0.000116 0 -7 0 2650 
2115 1 0.016765 0.00072307 0.02409 0.000116 0 -7 0 2650 
518 1 0.03397 0.00042107 0.023721 0.000116 0 -7 0 2650 
1937 1 0.043278 0.00024707 0.023552 0.000116 0 -7 0 2650 
1456 1 0.076694 0.000256128 0.023974 0.000116 0 2.23849 0 2650 
879 1 0.116971 0.00017334 0.023556 4.2e-05 0 2.23418 0 2650 
446 1 0.101555 0.00160307 0.023987 4.2e-05 0 -7 0 2650 
1812 1 0.145705 0.00138607 0.02396 0.000423 0 -7 0 2650 
1263 1 0.073086 0.00207707 0.023941 0.000423 0 -7 0 2650 
400 1 0.131378 0.00173207 0.023773 4.2e-05 0 -7 0 2650 
2223 1 0.0639196 0.00282982 0.0236603 0.000423 -0.895355 -4.61929 -1.78423 2650 
617 1 0.041439 0.000441811 0.024608 0.000423 0 2.23951 0 2650 
47 1 0.085962 0.000620342 0.024809 0.000423 0 2.23961 0 2650 
544 1 0.096732 0.00072182 0.024122 0.000656 0 2.23969 0 2650 
2269 1 0.138223 0.00057207 0.024436 0.000423 0 -7 0 2650 
1225 1 0.148005 0.000884036 0.024592 0.000656 0 2.23968 0 2650 
339 1 0.035201 0.00140307 0.024381 0.000423 0 -7 0 2650 
958 1 0.054851 0.00119207 0.024231 0.000116 0 -7 0 2650 
828 1 0.159183 0.00116307 0.024535 0.000116 0 -7 0 2650 
2136 1 0.002327 0.00209107 0.024891 0.000116 0 -7 0 2650 
1583 1 0.023207 0.00187307 0.02431 0.000423 0 -7 0 2650 
2381 1 0.054499 0.00179707 0.024569 0.000116 0 -7 0 2650 
1056 1 0.129981 0.00179107 0.024264 0.000656 0 -7 0 2650 
331 1 0.008847 0.000252595 0.025112 0.000116 0 2.23824 0 2650 
1935 1 0.054785 0.000271454 0.025329 0.000116 0 2.23815 0 2650 
1104 1 0.096386 0.000381063 0.025692 0.000423 0 2.05326 0 2650 
2499 1 0.137558 0.00040907 0.025442 4.2e-05 0 -7 0 2650 
2375 1 0.039706 0.00146007 0.024993 0.000116 0 -7 0 2650 
1374 1 0.0634298 0.00141473 0.0252628 0.000423 -0.361537 -7.01054 0.201708 2650 
719 1 0.0646685 0.000982943 0.0250156 0.000656 0.336983 -7.63546 0.424288 2650 
437 1 0.068747 0.00100007 0.024959 0.000656 0 -7 0 2650 
1745 1 0.10678 0.00163307 0.025316 0.000423 0 -7 0 2650 
2356 1 0.082785 0.00175607 0.025415 0.000116 0 -7 0 2650 
120 1 0.124076 0.00180807 0.025565 0.000423 0 -7 0 2650 
2009 1 0.136827 0.00199407 0.02526 0.000656 0 -7 0 2650 
2283 1 0.075251 0.00039107 0.026091 0.000116 0 -7 0 2650 
1025 1 0.086945 0.000615314 0.025794 0.000656 0 -5.15708 0 2650 
441 1 0.136743 0.00017607 0.025781 0.000116 0 -7 0 2650 
631 1 0.153063 0.00081807 0.025957 0.000423 0 -7 0 2650 
86 1 0.158832 0.00079907 0.026032 0.000116 0 -7 0 2650 
930 1 0.077129 0.00124407 0.025773 0.000423 0 -7 0 2650 
130 1 0.115638 0.00113607 0.026445 0.000116 0 -7 0 2650 
2126 1 0.133494 0.00091507 0.025818 4.2e-05 0 -7 0 2650 
1942 1 0.145658 0.00100607 0.025799 4.2e-05 0 -7 0 2650 
2056 1 0.156272 0.00161907 0.026115 0.000116 0 -7 0 2650 
2409 1 0.045373 0.00193207 0.026375 0.000116 0 -7 0 2650 
2469 1 0.071532 0.00213607 0.025811 0.000116 0 -7 0 2650 
1319 1 0.091555 0.00204507 0.0258 0.000423 0 -7 0 2650 
1490 1 0.010825 0.00065407 0.026744 0.000423 0 -7 0 2650 
70 1 0.049569 0.000513162 0.027006 0.000423 0 2.23965 0 2650 
2262 1 0.110514 0.00076007 0.026869 0.000423 0 -7 0 2650 
977 1 0.13334 0.000185483 0.026793 4.2e-05 0 2.23441 0 2650 
428 1 0.156242 0.00057407 0.026554 0.000423 0 -7 0 2650 
2149 1 0.020829 0.00098807 0.02721 0.000116 0 -7 0 2650 
1638 1 0.051593 0.00087607 0.026922 0.000656 0 -7 0 2650 
1777 1 0.057211 0.00088807 0.026905 0.000423 0 -7 0 2650 
1117 1 0.089455 0.00120907 0.026925 0.000423 0 -7 0 2650 
2030 1 0.02889 0.00171107 0.02685 0.000116 0 -7 0 2650 
817 1 0.075874 0.00201807 0.026873 0.000116 0 -7 0 2650 
23 1 0.092209 9.74702e-05 0.027444 0.000423 0 4.0692 -3.00676 2650 
2107 1 0.138375 0.00013173 0.027461 0.000116 0 2.23824 0 2650 
1153 1 0.0295042 0.000128768 0.0275458 0.000116 -19.9088 -9.00064 -10.2472 2650 
266 1 0.081775 0.00054707 0.027512 0.000423 0 -7 0 2650 
1929 1 0.092846 0.000259949 0.027856 0.000116 0 2.23825 0 2650 
1086 1 0.110601 0.000553476 0.027997 0.000423 0 2.23965 0 2650 
2405 1 0.119159 0.00063407 0.027714 0.000423 0 -7 0 2650 
1400 1 0.131684 0.00066707 0.027456 0.000423 0 -7 0 2650 
721 1 0.103254 0.00131007 0.027601 0.000656 0 -7 0 2650 
1482 1 0.157259 0.00118507 0.027332 4.2e-05 0 -7 0 2650 
1195 1 0.159417 0.00122907 0.027491 4.2e-05 0 -7 0 2650 
1722 1 0.015485 0.00185807 0.02792 0.000423 0 -7 0 2650 
458 1 0.023778 0.00180107 0.02804 0.000116 0 -7 0 2650 
571 1 0.123616 0.00165607 0.027453 0.000423 0 -7 0 2650 
567 1 0.012167 0.000113691 0.028577 0.000116 0 2.53535 0 2650 
1740 1 0.044597 0.00057707 0.028771 0.000116 0 -7 0 2650 
1340 1 0.0473577 0.00163958 0.0284469 0.000656 -5.71693 -5.65723 -4.08934 2650 
882 1 0.08832 0.00113307 0.028089 0.000116 0 -7 0 2650 
1320 1 0.088834 0.00147907 0.028395 0.000116 0 -7 0 2650 
1562 1 0.106581 0.00119107 0.028147 4.2e-05 0 -7 0 2650 
1076 1 0.006655 0.00195307 0.028645 4.2e-05 0 -7 0 2650 
1662 1 0.009982 0.00177407 0.028422 0.000116 0 -7 0 2650 
2359 1 0.065394 0.00190507 0.028807 0.000656 0 -7 0 2650 
2059 1 0.066155 0.00204607 0.028516 4.2e-05 0 -7 0 2650 
261 1 0.068779 0.00188507 0.028837 0.000423 0 -7 0 2650 
318 1 0.078017 0.00180807 0.028737 0.000423 0 -7 0 2650 
1915 1 0.030283 0.000887556 0.029516 0.000656 0 2.23969 0 2650 
1763 1 0.047656 0.000525319 0.029583 0.000423 0 2.23963 0 2650 
1177 1 0.078504 0.000589618 0.029338 0.000423 0 2.23951 0 2650 
2058 1 0.131828 0.000594097 0.029473 0.000423 0 2.23951 0 2650 
1622 1 0.148534 0.00054907 0.028927 0.000116 0 -7 0 2650 
1930 1 0.155149 0.00081907 0.029092 0.000116 0 -7 0 2650 
271 1 0.023654 0.00111807 0.02955 0.000116 0 -7 0 2650 
66 1 0.028179 0.00114107 0.028997 0.000423 0 -7 0 2650 
956 1 0.077236 0.00102707 0.029149 0.000423 0 -7 0 2650 
1470 1 0.12141 0.00095307 0.029441 4.2e-05 0 -7 0 2650 
682 1 0.088745 0.00206507 0.029072 0.000116 0 -7 0 2650 
2494 1 0.112264 0.00212707 0.029261 0.000116 0 -7 0 2650 
431 1 0.152539 0.00187107 0.029046 0.000656 0 -7 0 2650 
709 1 0.0731 0.00013888 0.030266 4.2e-05 0 2.23441 0 2650 
1489 1 0.085601 0.000593146 0.029983 0.000423 0 2.23961 0 2650 
2170 1 0.091337 0.00083007 0.030379 0.000656 0 -7 0 2650 
2480 1 0.014403 0.00212407 0.029889 0.000423 0 -7 0 2650 
71 1 0.106422 0.00185207 0.030376 0.000423 0 -7 0 2650 
620 1 0.130104 0.00212307 0.029694 0.000423 0 -7 0 2650 
832 1 0.131801 0.00200307 0.030002 0.000423 0 -7 0 2650 
1950 1 0.022167 0.000587707 0.030465 0.000423 0 2.23961 0 2650 
336 1 0.087181 0.000740697 0.030702 0.000656 0 2.23968 0 2650 
774 1 0.11455 0.00012307 0.030516 0.000116 0 -7 0 2650 
602 1 0.116328 0.00067707 0.030689 0.000423 0 -7 0 2650 
2124 1 0.154316 0.000414797 0.031201 0.000423 0 2.52833 0 2650 
1122 1 0.155298 0.000617781 0.030545 0.000423 0 2.23961 0 2650 
877 1 0.039966 0.00116907 0.03105 0.000116 0 -7 0 2650 
944 1 0.0544054 0.00100601 0.0310623 0.000116 5.13302 -5.09061 -4.26128 2650 
1943 1 0.078682 0.00121107 0.031037 0.000116 0 -7 0 2650 
1775 1 0.150402 0.00141307 0.030808 4.2e-05 0 -7 0 2650 
1603 1 0.023098 0.00199307 0.030883 0.000423 0 -7 0 2650 
1987 1 0.071649 0.00200207 0.030617 0.000116 0 -7 0 2650 
1238 1 0.104414 0.00173907 0.030915 0.000116 0 -7 0 2650 
636 1 0.009596 0.000214905 0.031372 0.000116 0 2.23914 0 2650 
857 1 0.064491 0.000580988 0.03123 0.000423 0 2.23961 0 2650 
800 1 0.151611 0.000588337 0.03144 0.000423 0 2.23948 0 2650 
162 1 0.0370451 0.000886554 0.0314272 0.000423 0.410581 -6.95874 0.211328 2650 
2023 1 0.149882 0.00112407 0.031951 0.000423 0 -7 0 2650 
1333 1 0.016229 0.00213807 0.031514 0.000423 0 -7 0 2650 
420 1 0.025512 0.00196107 0.03125 0.000116 0 -7 0 2650 
1175 1 0.025974 0.00180007 0.031548 0.000116 0 -7 0 2650 
1838 1 0.045964 0.00190207 0.031543 0.000116 0 -7 0 2650 
1417 1 0.119202 0.00200907 0.03136 0.000656 0 -7 0 2650 
2212 1 0.034922 0.000172885 0.032446 4.2e-05 0 2.23729 0 2650 
2479 1 0.048455 0.00069807 0.032053 0.000116 0 -7 0 2650 
442 1 0.050471 0.000167048 0.032133 4.2e-05 0 2.23579 0 2650 
40 1 0.060669 0.000609232 0.032374 0.000656 0 2.82349 0 2650 
752 1 0.062391 0.00032007 0.032608 0.000116 0 -7 0 2650 
1119 1 0.08841 0.000199231 0.032365 0.000116 0 2.23914 0 2650 
406 1 0.0921406 0.00030771 0.032739 0.000423 7.48852 0.488519 0 2650 