ITEM: TIMESTEP
55000
ITEM: NUMBER OF ATOMS
2474
ITEM: BOX BOUNDS ff ff ff
-0.005905 0.167905
-0.000656 0.011154
-0.005905 0.167905
ITEM: ATOMS id type x y z radius vx vy vz density 
1756 1 0.004144 0.000388243 0.000832 0.000423 0 2.66098 0 2650 
2078 1 0.019324 0.000301836 0.000953 0.000116 0 2.23824 0 2650 
1188 1 0.020639 0.000220312 0.000927 0.000116 0 2.23849 0 2650 
65 1 0.027038 0.00059007 0.001133 0.000116 0 -7 0 2650 
820 1 0.110174 0.000713504 0.001096 0.000656 0 2.2398 0 2650 
2317 1 0.014297 0.00105131 0.001071 0.000423 0 2.23961 0 2650 
1551 1 0.0855472 0.00122864 0.000939859 0.000656 0.551287 1.97103 -0.133068 2650 
84 1 0.108185 0.00123343 0.001133 0.000656 0 2.23968 0 2650 
2391 1 0.018068 0.000417117 0.001955 4.2e-05 0 2.23757 0 2650 
2340 1 0.031543 0.000205949 0.001662 0.000116 0 2.23914 0 2650 
692 1 0.038362 0.000274977 0.001808 0.000116 0 2.23824 0 2650 
213 1 0.044271 0.000861263 0.001469 0.000423 0 2.23963 0 2650 
1974 1 0.073895 0.000542278 0.001874 0.000423 0 2.23965 0 2650 
886 1 0.0834272 0.000562542 0.00161613 0.000423 -0.821324 2.12897 0.317751 2650 
666 1 0.0842205 0.000617385 0.00123215 0.000423 -0.744671 2.02934 0.0764923 2650 
1136 1 0.0940004 0.000833524 0.00162872 0.000423 0.000643196 2.23497 0.0606212 2650 
355 1 0.111145 0.000474446 0.001866 0.000423 0 2.23961 0 2650 
2142 1 0.126502 0.00068607 0.001576 0.000656 0 -7 0 2650 
2403 1 0.006528 0.00102763 0.001419 0.000423 0 2.23961 0 2650 
1432 1 0.016035 0.00105259 0.001465 0.000423 0 2.23961 0 2650 
1066 1 0.011114 0.00043407 0.002419 0.000116 0 -7 0 2650 
1274 1 0.018553 0.00046613 0.002496 0.000423 0 2.23965 0 2650 
1776 1 0.021661 0.000670248 0.002691 0.000116 0 2.23849 0 2650 
240 1 0.0511764 0.000551519 0.00231815 0.000423 -1.06533 1.37752 -1.50895 2650 
2298 1 0.077914 0.000220312 0.002756 0.000116 0 2.23849 0 2650 
2049 1 0.084987 0.00049707 0.002439 0.000116 0 -7 0 2650 
1138 1 0.101697 0.000443092 0.002616 0.000423 0 2.23961 0 2650 
1422 1 0.104327 0.000730275 0.002201 0.000116 0 2.23815 0 2650 
652 1 0.10982 0.000800469 0.002424 0.000423 0 2.23961 0 2650 
985 1 0.116858 0.000567736 0.002415 0.000116 0 2.23917 0 2650 
94 1 0.127492 0.000609116 0.002577 0.000116 0 2.23825 0 2650 
1752 1 0.130965 0.000231886 0.002114 4.2e-05 0 2.23579 0 2650 
1664 1 0.158101 0.00060807 0.002099 0.000116 0 -7 0 2650 
2089 1 0.055205 0.000108917 0.003367 4.2e-05 0 2.23579 0 2650 
2459 1 0.074324 0.000132688 0.003444 0.000116 0 2.23815 0 2650 
1370 1 0.0430636 0.000227658 0.00343246 0.000116 5.56923 1.60978 -4.153 2650 
840 1 0.080646 0.000293835 0.003038 0.000116 0 2.23815 0 2650 
2174 1 0.086202 0.00064706 0.003033 0.000116 0 2.23914 0 2650 
254 1 0.0943 0.000575843 0.003434 0.000116 0 2.23815 0 2650 
1356 1 0.137449 0.000529909 0.00349466 0.000423 1.10502 1.29652 -1.48652 2650 
658 1 0.150029 0.00040307 0.003124 0.000116 0 -7 0 2650 
1208 1 0.0208372 0.00101255 0.00357362 0.000116 -3.89137 0.441907 1.61315 2650 
1524 1 0.0221305 0.00099199 0.00303712 0.000423 0.0794613 2.08506 -0.0358902 2650 
361 1 0.001268 0.000134927 0.003827 0.000116 0 2.23815 0 2650 
2182 1 0.0223561 5.73181e-05 0.00382688 4.2e-05 0.807689 -5.88737 2.67867 2650 
585 1 0.143349 4.607e-05 0.004178 4.2e-05 0 -7 0 2650 
365 1 0.014662 0.000671587 0.003871 0.000656 0 2.23971 0 2650 
1606 1 0.035843 0.00053607 0.003632 0.000423 0 -7 0 2650 
2047 1 0.0423109 0.000501669 0.00399379 0.000423 -0.109297 2.17458 0.0815035 2650 
300 1 0.0521988 0.000444409 0.00376628 0.000423 1.26543 0.145525 1.79239 2650 
1764 1 0.1048 0.000596665 0.003935 0.000423 0 2.23961 0 2650 
648 1 0.133894 0.000913777 0.00425351 0.000423 0.0838685 2.08917 0.0275692 2650 
1816 1 0.147786 0.000839503 0.003726 0.000423 0 2.23961 0 2650 
892 1 0.0226953 0.00115512 0.00411831 0.000423 1.67849 2.79186 -4.13891 2650 
980 1 0.06939 0.00134093 0.003991 0.000656 0 2.23968 0 2650 
824 1 0.126159 0.00100936 0.003789 0.000423 0 2.23948 0 2650 
95 1 0.132776 0.000993065 0.00388606 0.000116 -4.06674 0.294724 -1.33682 2650 
1932 1 0.141016 0.00121903 0.003702 0.000656 0 2.23969 0 2650 
2050 1 0.052331 0.00270173 0.00429085 0.000423 -5.51865 -1.1639 -1.19652 2650 
176 1 0.001438 0.00068907 0.00443 0.000116 0 -7 0 2650 
1061 1 0.0217117 0.000716242 0.00473683 0.000423 -1.67849 1.35467 -4.76814 2650 
1679 1 0.042503 0.000109712 0.005076 0.000116 0 -5.50452 0 2650 
424 1 0.061715 0.00061407 0.005053 0.000423 0 -7 0 2650 
188 1 0.064849 0.000381968 0.005091 0.000423 0 2.16725 0 2650 
1277 1 0.075006 0.00065107 0.005099 0.000116 0 -7 0 2650 
1635 1 0.088691 0.000408772 0.004515 0.000423 0 -6.24831 0 2650 
2366 1 0.108993 0.000554113 0.004482 0.000423 0 2.23961 0 2650 
2258 1 0.115895 0.000699103 0.00444 0.000656 0 2.23969 0 2650 
573 1 0.117631 0.000457701 0.005072 4.2e-05 0 2.23579 0 2650 
1814 1 0.131875 0.00062107 0.004611 0.000116 0 -7 0 2650 
1123 1 0.134858 0.000782876 0.004516 0.000423 0 2.23963 0 2650 
916 1 0.13642 0.000469375 0.00487822 0.000423 -1.264 0.226579 1.70038 2650 
345 1 0.146378 0.000873418 0.004988 0.000423 0 2.23961 0 2650 
1883 1 0.158442 0.000605295 0.004964 0.000423 0 2.23951 0 2650 
1446 1 0.033447 0.000243642 0.005416 0.000116 0 2.23824 0 2650 
1659 1 0.055425 0.00072807 0.005474 0.000116 0 -7 0 2650 
2305 1 0.06562 0.00011007 0.005446 0.000116 0 -7 0 2650 
1806 1 0.067083 0.00100488 0.005229 0.000423 0 2.23948 0 2650 
1040 1 0.099414 0.00105768 0.005841 0.000423 0 2.23951 0 2650 
779 1 0.0582863 0.00179075 0.00558204 0.000423 3.85388 4.10676 0.835576 2650 
104 1 0.020242 0.00037549 0.006244 0.000423 0 0.389632 0 2650 
831 1 0.025684 0.000821586 0.00637 0.000423 0 2.23961 0 2650 
1819 1 0.038335 0.00052407 0.006672 0.000116 0 -7 0 2650 
628 1 0.073589 0.00062207 0.006621 0.000423 0 -7 0 2650 
1627 1 0.076565 0.000166261 0.006259 0.000116 0 2.23815 0 2650 
218 1 0.080191 0.00069407 0.006156 0.000423 0 -7 0 2650 
1963 1 0.083996 0.00050607 0.006477 4.2e-05 0 -7 0 2650 
1820 1 0.09489 0.000571726 0.006065 4.2e-05 0 2.23579 0 2650 
2111 1 0.136698 0.000535559 0.006144 0.000423 0 2.23965 0 2650 
1410 1 0.150839 0.000392863 0.006562 4.2e-05 0 2.23579 0 2650 
1852 1 0.154146 0.00072107 0.005953 0.000423 0 -7 0 2650 
960 1 0.00685 0.00068507 0.006958 0.000116 0 -7 0 2650 
1233 1 0.008632 0.000402764 0.007405 0.000423 0 -5.75836 0 2650 
1909 1 0.018376 0.000706729 0.007196 0.000423 0 2.23963 0 2650 
2425 1 0.026329 0.000380175 0.006758 0.000116 0 2.23824 0 2650 
1531 1 0.029084 0.00068753 0.007413 0.000423 0 2.23961 0 2650 
1307 1 0.035736 0.000548684 0.006764 0.000116 0 2.23825 0 2650 
1810 1 0.043944 0.00056307 0.007253 0.000116 0 -7 0 2650 
352 1 0.101466 0.000877406 0.00728877 0.000423 0.453302 1.57283 -1.58017 2650 
575 1 0.113515 0.000377574 0.006827 0.000423 0 -1.63237 0 2650 
2128 1 0.115633 0.000453115 0.006908 0.000116 0 2.23849 0 2650 
1387 1 0.140551 0.00054507 0.007306 0.000423 0 -7 0 2650 
2234 1 0.053132 0.00104844 0.007104 0.000423 0 2.23965 0 2650 
990 1 0.10489 0.00142532 0.00672268 0.000116 14.0617 -4.82552 -14.5256 2650 
881 1 0.115529 0.00232645 0.0072879 0.000656 0.207126 -0.626163 -2.2878 2650 
554 1 0.003153 0.00044205 0.007568 4.2e-05 0 2.23579 0 2650 
917 1 0.028712 0.000462069 0.008079 0.000116 0 2.23849 0 2650 
18 1 0.083283 0.000434341 0.007617 0.000116 0 2.23914 0 2650 
200 1 0.105488 0.000454982 0.00826283 0.000423 0.247037 0.673181 -0.558684 2650 
2093 1 0.133208 0.00071307 0.007989 0.000423 0 -7 0 2650 
1159 1 0.150815 0.000677614 0.007685 0.000423 0 2.23963 0 2650 
706 1 0.0609986 0.00120428 0.00794237 0.000423 0.265473 2.54909 -0.409458 2650 
1960 1 0.094905 0.00093965 0.008097 0.000423 0 2.23963 0 2650 
1517 1 0.004885 0.000874701 0.008365 0.000423 0 2.23963 0 2650 
2385 1 0.0282926 0.000613223 0.00856493 0.000423 -0.879729 2.50774 -2.04498 2650 
967 1 0.045216 0.00064007 0.009072 0.000423 0 -7 0 2650 
337 1 0.078317 0.00071107 0.00903 0.000656 0 -7 0 2650 
1946 1 0.09912 0.000189406 0.009084 4.2e-05 0 2.23579 0 2650 
508 1 0.101121 0.000662148 0.00848929 0.000656 -0.0949987 2.1825 0.331157 2650 
5 1 0.137396 0.00034707 0.008337 0.000116 0 -7 0 2650 
1173 1 0.152246 0.000152287 0.009042 4.2e-05 0 2.23441 0 2650 
2121 1 0.1556 0.000338445 0.008517 4.2e-05 0 2.23729 0 2650 
2264 1 0.159154 0.00032107 0.008714 0.000116 0 -7 0 2650 
366 1 0.039524 0.00105931 0.008361 0.000423 0 2.23961 0 2650 
552 1 0.105336 0.00124037 0.00860521 0.000423 -0.505712 0.411121 1.14369 2650 
1353 1 0.135932 0.00112458 0.00907602 0.000656 0.000357376 2.23698 0.000135862 2650 
157 1 0.135621 0.00196075 0.00895758 4.2e-05 -1.36172 3.32842 -0.51768 2650 
165 1 0.041117 0.000137165 0.009537 0.000116 0 2.23815 0 2650 
2197 1 0.0287506 0.000631309 0.00962958 0.000423 1.37491 -3.16193 3.19607 2650 
2015 1 0.098067 0.00029107 0.009838 0.000116 0 -7 0 2650 
1881 1 0.119492 0.000823565 0.009255 0.000656 0 2.23968 0 2650 
1194 1 0.138262 0.00032007 0.009231 0.000116 0 -7 0 2650 
1688 1 0.141376 0.00071307 0.009894 0.000656 0 -7 0 2650 
1412 1 0.145768 0.000405436 0.009397 0.000116 0 2.23825 0 2650 
404 1 0.117705 0.00104295 0.009716 0.000423 0 2.23948 0 2650 
623 1 0.017229 0.00085388 0.010022 0.000423 0 2.23951 0 2650 
1163 1 0.038505 0.000449143 0.010104 4.2e-05 0 2.23441 0 2650 
691 1 0.065911 0.000375893 0.010344 0.000423 0 0.731438 0 2650 
1455 1 0.069014 0.000633243 0.010395 0.000656 0 -6.21574 0 2650 
59 1 0.080657 0.000583104 0.010435 0.000656 0 0.794647 0 2650 
177 1 0.102003 0.00053235 0.01063 0.000423 0 2.23948 0 2650 
1418 1 0.11782 0.000249413 0.010281 0.000116 0 2.23849 0 2650 
2145 1 0.122125 0.000507974 0.0102603 0.000423 -1.86021 0.787823 0.697926 2650 
784 1 0.122972 0.000638605 0.00994266 0.000423 1.86021 -5.54822 -0.697926 2650 
1335 1 0.129495 0.000526985 0.009967 0.000116 0 2.23849 0 2650 
212 1 0.148551 0.00071907 0.010262 0.000423 0 -7 0 2650 
866 1 0.150967 0.000831193 0.010212 0.000423 0 2.23965 0 2650 
2294 1 0.067079 0.000996597 0.010632 0.000423 0 2.23961 0 2650 
1548 1 0.098569 0.0001426 0.010796 0.000116 0 2.23815 0 2650 
1717 1 0.139512 8.17388e-05 0.011002 4.2e-05 0 2.23418 0 2650 
1424 1 0.018389 0.000801429 0.010884 0.000423 0 2.23961 0 2650 
859 1 0.020765 0.00063154 0.011218 0.000423 0 2.23961 0 2650 
2373 1 0.056707 0.00028507 0.011468 4.2e-05 0 -7 0 2650 
2442 1 0.061003 0.000555699 0.011176 0.000116 0 2.23815 0 2650 
1984 1 0.0747232 0.000514821 0.010928 0.000116 -9.19055 2.19055 0 2650 
278 1 0.078922 0.000641148 0.011437 0.000116 0 2.23849 0 2650 
1842 1 0.128813 0.00014607 0.011369 0.000116 0 -7 0 2650 
2046 1 0.131466 0.000613802 0.01084 0.000116 -0.178249 1.93796 -0.108222 2650 
650 1 0.131913 0.000495331 0.0111117 4.2e-05 3.75537 -0.654127 2.28004 2650 
1134 1 0.141049 0.000335188 0.010696 4.2e-05 0 2.23441 0 2650 
972 1 0.159836 0.000395405 0.011222 0.000423 0 2.86643 0 2650 
1899 1 0.0944249 0.00013062 0.0116711 0.000116 1.87708 1.92082 0.258428 2650 
605 1 0.119613 8.73099e-05 0.0115478 0.000116 0 0.452724 -7.45272 2650 
460 1 0.003722 0.000660979 0.011587 0.000423 0 2.23965 0 2650 
1886 1 0.024919 0.00070807 0.01171 0.000116 0 -7 0 2650 
2390 1 0.033791 0.00019207 0.012191 0.000116 0 -7 0 2650 
219 1 0.04317 0.000281365 0.011985 0.000116 0 2.23815 0 2650 
1733 1 0.093161 0.00050007 0.012041 0.000116 0 -7 0 2650 
1236 1 0.0936786 0.000672688 0.0115692 0.000423 -0.0535116 2.20749 0.000813506 2650 
2205 1 0.125225 0.000617428 0.012172 0.000116 0 2.23824 0 2650 
966 1 0.140948 0.000687455 0.011888 0.000116 0 2.23825 0 2650 
1112 1 0.151852 0.000550053 0.012176 4.2e-05 0 2.2374 0 2650 
1542 1 0.041337 0.00100075 0.011979 0.000423 0 2.23961 0 2650 
67 1 0.096194 0.00123729 0.011854 0.000656 0 2.23979 0 2650 
2067 1 0.141648 0.00102632 0.011964 0.000423 0 2.23951 0 2650 
1535 1 0.115095 0.00484034 0.0120783 0.000423 -0.288817 -3.41712 3.19011 2650 
197 1 0.001978 4.07837e-05 0.012413 4.2e-05 0 2.66484 0 2650 
2495 1 0.004327 0.000539395 0.013029 0.000423 0 2.23961 0 2650 
895 1 0.045265 0.000655588 0.012269 0.000656 0 2.24435 0 2650 
489 1 0.047522 0.00071607 0.012445 0.000423 0 -7 0 2650 
597 1 0.052746 0.0007451 0.012275 0.000423 0 2.23948 0 2650 
1205 1 0.074386 0.00062007 0.012556 0.000116 0 -7 0 2650 
738 1 0.077063 0.000509642 0.012617 0.000423 0 2.23963 0 2650 
294 1 0.083181 0.000494279 0.012766 0.000423 0 2.23948 0 2650 
2175 1 0.099879 0.00010299 0.012522 0.000116 0 0.436576 0 2650 
794 1 0.101794 0.00071307 0.012964 0.000656 0 -7 0 2650 
723 1 0.135627 0.00061613 0.012992 0.000116 0 2.23815 0 2650 
1598 1 0.140638 0.00063007 0.012616 0.000116 0 -7 0 2650 
2040 1 0.0712073 0.00112754 0.0124107 0.000116 -0.83955 4.01824 -1.40681 2650 
1396 1 0.149437 0.00101708 0.012358 0.000423 0 2.23965 0 2650 
1719 1 0.032653 0.000386915 0.013588 0.000423 0 -3.82474 0 2650 
265 1 0.051603 0.00015207 0.013845 0.000116 0 -7 0 2650 
459 1 0.065523 0.00016707 0.013362 0.000116 0 -7 0 2650 
954 1 0.0719267 0.000625501 0.0136161 0.000656 0.00576371 -5.77804 0.00965811 2650 
2302 1 0.075182 0.000380209 0.013287 0.000423 0 1.92979 0 2650 
1241 1 0.080082 0.00064407 0.01365 0.000116 0 -7 0 2650 
2436 1 0.084941 0.000453703 0.013757 0.000116 0 2.23815 0 2650 
1385 1 0.09883 0.000156351 0.013076 0.000116 0 2.23824 0 2650 
1833 1 0.115349 0.000850355 0.013093 0.000423 0 2.23948 0 2650 
1601 1 0.129629 0.000358742 0.013243 0.000116 0 2.23815 0 2650 
1348 1 0.132843 0.00042907 0.013729 0.000116 0 -7 0 2650 
1649 1 0.14757 0.000888139 0.013797 0.000423 0 2.23963 0 2650 
1284 1 0.020685 0.00102476 0.013078 0.000423 0 2.23963 0 2650 
2243 1 0.046104 0.00134669 0.013449 0.000656 0 2.23969 0 2650 
2120 1 0.056455 0.00096716 0.013138 0.000423 0 2.23961 0 2650 
396 1 0.0941546 0.00248293 0.0132075 4.2e-05 3.06854 15.3779 17.2229 2650 
2097 1 0.157939 0.000111523 0.014523 4.2e-05 0 2.2374 0 2650 
1801 1 0.010927 0.00061745 0.014115 0.000423 0 2.23948 0 2650 
27 1 0.030797 0.000170122 0.014592 0.000116 0 2.23914 0 2650 
48 1 0.035058 0.000173642 0.013916 0.000116 0 2.23917 0 2650 
610 1 0.039545 0.000735186 0.013854 0.000423 0 2.23951 0 2650 
152 1 0.048531 0.00066607 0.014359 0.000116 0 -7 0 2650 
1452 1 0.057611 0.000334122 0.014495 0.000116 0 2.23815 0 2650 
1135 1 0.075772 0.000500997 0.014316 0.000423 0 2.23948 0 2650 
1931 1 0.102655 0.00070507 0.014112 4.2e-05 0 -7 0 2650 
630 1 0.10425 0.00017707 0.014428 0.000116 0 -7 0 2650 
790 1 0.126922 0.00064507 0.01428 0.000116 0 -7 0 2650 
1458 1 0.142812 0.000523907 0.014111 0.000116 0 2.23914 0 2650 
1257 1 0.1497 0.000592807 0.014178 0.000116 0 2.23824 0 2650 
412 1 0.055062 0.00101323 0.014355 0.000423 0 2.23961 0 2650 
1002 1 0.008661 0.00057307 0.015305 0.000116 0 -7 0 2650 
1790 1 0.014573 0.000669451 0.015413 0.000116 0 2.23914 0 2650 
1998 1 0.04633 0.00041407 0.01483 4.2e-05 0 -7 0 2650 
1308 1 0.051143 0.00031207 0.015138 0.000116 0 -7 0 2650 
724 1 0.051952 0.000105807 0.015061 0.000116 0 2.5176 0 2650 
1484 1 0.053459 0.00057307 0.015164 0.000116 0 -7 0 2650 
616 1 0.060796 0.000208786 0.014808 0.000116 0 2.23815 0 2650 
1160 1 0.068631 0.00043607 0.014917 0.000423 0 -7 0 2650 
2042 1 0.087817 0.00046507 0.015033 0.000116 0 -7 0 2650 
1207 1 0.0966149 0.000702022 0.0152705 0.000656 -0.0548809 2.24356 0.0566914 2650 
211 1 0.124407 0.000920129 0.0149 0.000423 0 2.23961 0 2650 
2335 1 0.133151 0.000698407 0.01467 0.000423 0 2.23961 0 2650 
146 1 0.156933 0.00108145 0.015215 0.000656 0 2.23971 0 2650 
1673 1 0.014714 0.000697447 0.015963 0.000423 0 2.23961 0 2650 
711 1 0.0251921 0.000481574 0.016101 0.000423 -0.046851 2.25189 0.0392278 2650 
934 1 0.025855 0.000390647 0.015546 0.000423 0.0497494 -4.3501 -0.0416546 2650 
64 1 0.050143 0.00033507 0.015685 0.000116 0 -7 0 2650 
314 1 0.09027 0.000564652 0.016032 0.000116 0 2.23815 0 2650 
2177 1 0.11132 0.00067407 0.015853 0.000423 0 -7 0 2650 
418 1 0.149012 0.00045007 0.015862 0.000423 0 -7 0 2650 
2091 1 0.104905 0.00121746 0.016209 0.000656 0 2.2398 0 2650 
783 1 0.124383 0.00102866 0.01615 0.000656 0 2.23969 0 2650 
1071 1 0.03269 0.00060107 0.016623 0.000116 0 -7 0 2650 
587 1 0.04028 0.000507558 0.016356 4.2e-05 0 2.23441 0 2650 
1602 1 0.042847 0.000585649 0.016354 0.000116 0 2.23917 0 2650 
57 1 0.057367 0.00065607 0.016604 0.000423 0 -7 0 2650 
2246 1 0.079128 0.00061107 0.016383 4.2e-05 0 -7 0 2650 
1809 1 0.084202 0.000704166 0.016295 0.000423 0 2.23961 0 2650 
1258 1 0.086891 0.00049207 0.016661 0.000423 0 -7 0 2650 
1979 1 0.148755 0.000849741 0.016686 0.000423 0 2.23961 0 2650 
1440 1 0.051411 0.00118096 0.016331 0.000656 0 2.23969 0 2650 
290 1 0.090462 9.13864e-05 0.017451 4.2e-05 0 2.2374 0 2650 
1589 1 0.13054 0.000122141 0.01743 0.000116 0 2.23917 0 2650 
413 1 0.0166397 0.000794542 0.0172573 0.000656 0.33165 1.88219 -0.708339 2650 
198 1 0.073518 0.000880137 0.017315 0.000423 0 2.23961 0 2650 
505 1 0.079356 0.000311429 0.017099 0.000116 0 2.23825 0 2650 
1739 1 0.08215 0.00051507 0.01734 4.2e-05 0 -7 0 2650 
2474 1 0.083353 0.000255473 0.017263 0.000116 0 2.23825 0 2650 
1537 1 0.088848 0.000673135 0.017169 0.000423 0 2.23963 0 2650 
1255 1 0.10321 0.000786563 0.0172246 0.000423 2.58578 1.74351 -0.774355 2650 
1481 1 0.103512 0.000167984 0.0177249 0.000116 1.2994 -6.763 1.09912 2650 
753 1 0.106579 0.000153158 0.017074 0.000116 0 2.23849 0 2650 
269 1 0.115081 0.00031307 0.017289 0.000116 0 -7 0 2650 
897 1 0.133624 0.000624668 0.017326 0.000116 0 2.23914 0 2650 
582 1 0.14625 0.000493115 0.0171849 0.000423 -1.37323 0.61928 -0.0583622 2650 
88 1 0.147439 0.000640237 0.0172354 0.000423 1.90158 -2.82495 0.0808171 2650 
1439 1 0.160999 0.00032707 0.017183 4.2e-05 0 -7 0 2650 
2192 1 0.0319404 0.00246439 0.0172705 0.000656 -6.87493 5.02947 -1.31107 2650 
922 1 0.101351 0.00251343 0.0174208 0.000423 -0.158534 4.66164 -0.876317 2650 
943 1 0.039469 0.000731234 0.018546 0.000116 0 2.23815 0 2650 
2486 1 0.042163 0.000726562 0.018514 0.000423 0 2.23961 0 2650 
1887 1 0.063275 0.000888139 0.018064 0.000423 0 2.23963 0 2650 
1304 1 0.082867 0.000728468 0.018006 0.000423 0 2.23951 0 2650 
1211 1 0.099148 0.000343429 0.018421 0.000116 0 2.23849 0 2650 
359 1 0.125342 0.000340526 0.018465 0.000116 0 2.23825 0 2650 
1140 1 0.138475 0.00044246 0.0179093 0.000423 0.0665955 2.2499 0.235381 2650 
770 1 0.087399 0.000138124 0.018895 0.000116 0 2.23815 0 2650 
600 1 0.0159169 0.000510499 0.018801 0.000423 -1.33476 0.616903 2.85079 2650 
72 1 0.01798 0.000279454 0.019191 0.000116 0 2.23824 0 2650 
1129 1 0.030015 0.000598224 0.019214 0.000116 0 2.23815 0 2650 
1058 1 0.033484 0.000279127 0.018874 0.000116 0 2.23815 0 2650 
1271 1 0.034605 0.000914347 0.019326 0.000423 0 2.23951 0 2650 
1228 1 0.0536146 0.000417884 0.0193314 0.000116 -10.5319 4.07973 16.2441 2650 
976 1 0.091588 0.000266664 0.019221 0.000116 0 2.23825 0 2650 
1782 1 0.109585 0.000734241 0.018854 0.000423 0 2.23961 0 2650 
217 1 0.11624 0.00015349 0.01924 0.000116 0 2.23917 0 2650 
103 1 0.134585 0.000728449 0.01865 0.000116 0 2.23849 0 2650 
2290 1 0.058947 0.00123663 0.018645 0.000656 0 2.23969 0 2650 
1989 1 0.0425697 0.00421559 0.0188272 0.000656 10.1656 1.11628 1.1651 2650 
467 1 0.008277 0.000861263 0.020141 0.000423 0 2.23963 0 2650 
1380 1 0.012312 0.000483081 0.019777 0.000423 0 2.23948 0 2650 
327 1 0.019879 0.000376741 0.020058 0.000423 0 -1.28068 0 2650 
491 1 0.037832 0.00051511 0.020112 0.000116 0 2.23825 0 2650 
2453 1 0.070332 0.000731196 0.019926 0.000116 0 2.23917 0 2650 
1941 1 0.102976 0.00025107 0.019466 0.000116 0 -7 0 2650 
255 1 0.111674 0.000626408 0.019727 0.000423 0 2.23948 0 2650 
635 1 0.124633 0.000734241 0.019499 0.000423 0 2.23961 0 2650 
1191 1 0.147173 0.000652978 0.019927 0.000423 0 2.23963 0 2650 
863 1 0.056957 0.0010238 0.019571 0.000423 0 2.23965 0 2650 
2139 1 0.0981157 0.00457743 0.0196525 0.000423 -3.3797 -1.7183 1.96296 2650 
1493 1 0.014484 0.00068107 0.020771 0.000423 0 -7 0 2650 
2354 1 0.014959 0.00065107 0.020276 0.000116 0 -7 0 2650 
1217 1 0.018898 0.00070907 0.020259 0.000423 0 -7 0 2650 
809 1 0.022569 0.000466973 0.020657 0.000116 0 2.23917 0 2650 
37 1 0.034376 0.000355554 0.020581 0.000116 0 2.23824 0 2650 
2085 1 0.051831 0.000703532 0.02068 0.000423 0 2.23965 0 2650 
2372 1 0.083067 0.000386363 0.020627 0.000116 0 2.23917 0 2650 
2245 1 0.084222 0.00030907 0.020706 0.000116 0 -7 0 2650 
1849 1 0.097369 0.000788313 0.02094 0.000423 0 2.23961 0 2650 
2433 1 0.120631 0.000102938 0.020189 0.000116 0 -0.0993506 0 2650 
888 1 0.136044 0.000420664 0.020613 0.000423 0 2.30783 0 2650 
1861 1 0.14233 0.00028299 0.020248 0.000116 0 2.23849 0 2650 
501 1 0.149638 0.000375728 0.020687 4.2e-05 0 2.23441 0 2650 
231 1 0.151138 0.000505162 0.020606 0.000423 0 2.23963 0 2650 
1067 1 0.0167148 0.00119418 0.0209332 0.000423 -0.390084 2.45924 -0.821365 2650 
1065 1 0.027926 0.000967482 0.020581 0.000423 0 2.23961 0 2650 
2423 1 0.0360274 0.00128695 0.020265 0.000423 -0.524783 -4.75206 2.48221 2650 
1643 1 0.072452 0.00097453 0.020494 0.000423 0 2.23965 0 2650 
2451 1 0.048261 0.000355298 0.021077 4.2e-05 0 2.23441 0 2650 
15 1 0.048347 0.000688156 0.021217 0.000116 0 2.23849 0 2650 
746 1 0.081277 0.000278513 0.020981 0.000116 0 2.23849 0 2650 
429 1 0.08347 0.000380549 0.021246 0.000423 0 -2.5386 0 2650 
1292 1 0.094998 0.000284319 0.021521 0.000116 0 2.23914 0 2650 
2172 1 0.121251 0.00039707 0.021576 0.000116 0 -7 0 2650 
1669 1 0.13613 0.00051307 0.02153 0.000423 0 -7 0 2650 
2349 1 0.144223 0.000489164 0.021596 0.000423 0 2.23961 0 2650 
111 1 0.145579 0.00073307 0.021193 0.000116 0 -7 0 2650 
2094 1 0.153133 0.00104844 0.021671 0.000423 0 2.23965 0 2650 
2096 1 0.096139 7.34872e-05 0.022521 4.2e-05 0 2.2374 0 2650 
2123 1 0.020135 0.000462289 0.022133 0.000423 0 2.23961 0 2650 
751 1 0.020676 0.000289705 0.022507 0.000116 0 2.23849 0 2650 
2210 1 0.034314 0.00028784 0.022213 0.000116 0 2.23917 0 2650 
2416 1 0.041036 0.000556352 0.021765 0.000423 0 2.23961 0 2650 
674 1 0.0429249 0.000605787 0.0219264 0.000656 -0.0146754 2.73556 -0.021194 2650 
1388 1 0.0434304 0.000168596 0.0223695 0.000116 5.42293 1.81012 -1.74145 2650 
1243 1 0.061472 0.000632093 0.021782 4.2e-05 0 2.23579 0 2650 
414 1 0.066167 0.00066007 0.021955 0.000116 0 -7 0 2650 
493 1 0.126871 0.000656804 0.022504 0.000423 0 2.23951 0 2650 
1994 1 0.142649 0.000781273 0.022027 0.000423 0 2.23961 0 2650 
1560 1 0.145212 0.000871506 0.022301 0.000423 0 2.23965 0 2650 
2270 1 0.000832 0.000428056 0.023295 0.000423 0 2.23965 0 2650 
38 1 0.0175355 0.000841962 0.0226613 0.000423 0.390905 2.01984 0.823094 2650 
249 1 0.022254 0.00069807 0.0233 0.000116 0 -7 0 2650 
993 1 0.028135 0.000177452 0.023309 0.000116 0 2.23815 0 2650 
1986 1 0.066282 0.000549691 0.022706 4.2e-05 0 2.23441 0 2650 
2314 1 0.076991 0.000730687 0.022691 0.000116 0 2.23849 0 2650 
1246 1 0.080504 0.000662834 0.023289 0.000116 0 2.23825 0 2650 
1504 1 0.095192 0.000421103 0.022785 0.000116 0 2.23825 0 2650 
1895 1 0.107656 0.000615869 0.023279 4.2e-05 0 2.23729 0 2650 
1118 1 0.119151 0.000502362 0.022741 0.000116 0 2.23849 0 2650 
1642 1 0.137147 0.000421321 0.023316 0.000423 0 2.2854 0 2650 
646 1 0.140105 0.000608823 0.023238 0.000423 0 2.23961 0 2650 
82 1 0.154961 0.000547068 0.023145 0.000423 0 2.23951 0 2650 
923 1 0.161252 0.000392676 0.023014 0.000116 0 2.23849 0 2650 
2223 1 0.0637405 0.00190597 0.0233035 0.000423 -0.895355 -4.61929 -1.78423 2650 
2115 1 0.016765 0.000348839 0.02409 0.000116 0 2.23824 0 2650 
518 1 0.03397 0.000445537 0.023721 0.000116 0 2.23914 0 2650 
1937 1 0.043278 0.000501039 0.023552 0.000116 0 2.23824 0 2650 
1263 1 0.073086 0.00067707 0.023941 0.000423 0 -7 0 2650 
1456 1 0.076694 0.000703825 0.023974 0.000116 0 2.23849 0 2650 
446 1 0.101555 0.00020307 0.023987 4.2e-05 0 -7 0 2650 
879 1 0.116971 0.000620176 0.023556 4.2e-05 0 2.23418 0 2650 
400 1 0.131378 0.00033207 0.023773 4.2e-05 0 -7 0 2650 
1812 1 0.145705 0.000487245 0.02396 0.000423 0 2.23963 0 2650 
2136 1 0.002327 0.00069107 0.024891 0.000116 0 -7 0 2650 
1583 1 0.023207 0.00047307 0.02431 0.000423 0 -7 0 2650 
339 1 0.035201 0.000481807 0.024381 0.000423 0 2.23965 0 2650 
617 1 0.041439 0.000889712 0.024608 0.000423 0 2.23951 0 2650 
958 1 0.054851 0.000198877 0.024231 0.000116 0 2.23824 0 2650 
2381 1 0.054499 0.00039707 0.024569 0.000116 0 -7 0 2650 
1056 1 0.129981 0.000618234 0.024264 0.000656 0 2.88279 0 2650 
2269 1 0.138223 0.000747679 0.024436 0.000423 0 2.23961 0 2650 
828 1 0.159183 0.000208188 0.024535 0.000116 0 2.23914 0 2650 
47 1 0.085962 0.00106826 0.024809 0.000423 0 2.23961 0 2650 
544 1 0.096732 0.00116976 0.024122 0.000656 0 2.23969 0 2650 
1225 1 0.148005 0.00133197 0.024592 0.000656 0 2.23968 0 2650 
2375 1 0.039706 0.000112953 0.024993 0.000116 0 2.63014 0 2650 
331 1 0.008847 0.000700243 0.025112 0.000116 0 2.23824 0 2650 
1935 1 0.054785 0.000719085 0.025329 0.000116 0 2.23815 0 2650 
1374 1 0.0633671 0.000478657 0.0252979 0.000423 -0.200178 2.24298 0.113202 2650 
719 1 0.0647212 0.000914386 0.02508 0.000656 0.244649 2.443 0.295326 2650 
437 1 0.068747 0.000876688 0.024959 0.000656 0 2.23979 0 2650 
2356 1 0.082785 0.00035607 0.025415 0.000116 0 -7 0 2650 
1104 1 0.096386 0.000835024 0.025692 0.000423 0 2.23961 0 2650 
1745 1 0.10678 0.000406423 0.025316 0.000423 0 2.78517 0 2650 
120 1 0.124076 0.000408772 0.025565 0.000423 0 -6.24831 0 2650 
2009 1 0.136827 0.000605623 0.0252586 0.000656 0.00345066 -4.33806 -0.0214023 2650 
2499 1 0.137558 0.000364236 0.025442 4.2e-05 0 2.23441 0 2650 
1153 1 0.0259476 0.000662107 0.0257152 0.000116 -17.742 2.87747 -9.1319 2650 
2409 1 0.045373 0.00053207 0.026375 0.000116 0 -7 0 2650 
2469 1 0.071532 0.00073607 0.025811 0.000116 0 -7 0 2650 
2283 1 0.075251 0.000454982 0.026091 0.000116 0 2.23815 0 2650 
930 1 0.077129 0.000532676 0.025773 0.000423 0 2.23961 0 2650 
1319 1 0.091555 0.00064507 0.0258 0.000423 0 -7 0 2650 
130 1 0.115638 0.000216783 0.026445 0.000116 0 2.23824 0 2650 
2126 1 0.133494 0.00020282 0.025818 4.2e-05 0 2.23579 0 2650 
441 1 0.136703 0.000215579 0.0260288 0.000116 -0.758758 -3.62632 4.7061 2650 
1942 1 0.145658 0.000173755 0.025799 4.2e-05 0 2.23579 0 2650 
631 1 0.153063 0.000668958 0.025957 0.000423 0 2.23948 0 2650 
2056 1 0.156299 0.000539848 0.025721 0.000116 0.298868 -3.43493 -4.37344 2650 
86 1 0.158832 0.000324623 0.026032 0.000116 0 2.23914 0 2650 
1025 1 0.086945 0.00100146 0.025794 0.000656 0 2.23969 0 2650 
1490 1 0.010825 0.00072145 0.026744 0.000423 0 2.23965 0 2650 
2149 1 0.020829 0.000264166 0.02721 0.000116 0 2.23914 0 2650 
2030 1 0.02889 0.00031107 0.02685 0.000116 0 -7 0 2650 
1638 1 0.051593 0.000916353 0.026922 0.000656 0 2.23969 0 2650 
1777 1 0.057211 0.000646563 0.026905 0.000423 0 2.23948 0 2650 
817 1 0.075874 0.00061807 0.026873 0.000116 0 -7 0 2650 
1117 1 0.089455 0.000543874 0.026925 0.000423 0 2.23961 0 2650 
2262 1 0.110514 0.00068753 0.026869 0.000423 0 2.23961 0 2650 
2405 1 0.119159 0.000641724 0.0267929 0.000423 0 3.73119 -4.56132 2650 
977 1 0.13334 0.000632364 0.026793 4.2e-05 0 2.23441 0 2650 
428 1 0.156241 0.000740427 0.0265621 0.000423 -0.00616357 2.16611 0.0901936 2650 
70 1 0.049569 0.000961092 0.027006 0.000423 0 2.23965 0 2650 
23 1 0.0924447 0.00136227 0.0268293 0.000423 0.977562 5.67563 -2.99402 2650 
1195 1 0.159417 0.000102573 0.027491 4.2e-05 0 2.2374 0 2650 
1722 1 0.015485 0.00045807 0.02792 0.000423 0 -7 0 2650 
458 1 0.023778 0.00040107 0.02804 0.000116 0 -7 0 2650 
1340 1 0.0462308 0.000597453 0.0276408 0.000656 -4.66627 1.2606 -3.3378 2650 
266 1 0.0803308 0.000591313 0.027512 0.000423 -8.5926 1.5926 0 2650 
1929 1 0.092846 0.000707599 0.027856 0.000116 0 2.23825 0 2650 
721 1 0.102736 0.000721557 0.0273075 0.000656 -6.17455 2.75241 -3.57786 2650 
571 1 0.123616 0.000397047 0.027453 0.000423 0 2.8796 0 2650 
1400 1 0.131684 0.00071727 0.027456 0.000423 0 2.23951 0 2650 
2107 1 0.138375 0.000579378 0.027461 0.000116 0 2.23824 0 2650 
1086 1 0.110601 0.00100141 0.027997 0.000423 0 2.23965 0 2650 
1562 1 0.106581 0.000114715 0.028147 4.2e-05 0 2.23729 0 2650 
1076 1 0.006655 0.00055307 0.028645 4.2e-05 0 -7 0 2650 
1662 1 0.009982 0.00037407 0.028422 0.000116 0 -7 0 2650 
567 1 0.012167 0.000561472 0.028577 0.000116 0 2.23824 0 2650 
1740 1 0.044597 0.000395511 0.028771 0.000116 0 2.23815 0 2650 
2359 1 0.065394 0.000582698 0.028807 0.000656 0 0.623773 0 2650 
2059 1 0.066155 0.00064607 0.028516 4.2e-05 0 -7 0 2650 
261 1 0.068779 0.00048507 0.028837 0.000423 0 -7 0 2650 
318 1 0.0779197 0.000489524 0.0286169 0.000423 -0.940171 -6.20644 -1.16025 2650 
882 1 0.08832 0.000217738 0.028089 0.000116 0 2.23815 0 2650 
1320 1 0.088834 0.000105455 0.028395 0.000116 0 2.41967 0 2650 
271 1 0.023654 0.000222551 0.02955 0.000116 0 2.23849 0 2650 
66 1 0.028179 0.000565632 0.028997 0.000423 0 2.23963 0 2650 
956 1 0.077236 0.000602104 0.029149 0.000423 0 2.23961 0 2650 
682 1 0.088745 0.00066507 0.029072 0.000116 0 -7 0 2650 
2494 1 0.112264 0.00072707 0.029261 0.000116 0 -7 0 2650 
1470 1 0.12141 0.000190783 0.029441 4.2e-05 0 2.23729 0 2650 
2058 1 0.131842 0.000665484 0.0292074 0.000423 0.116053 -0.993838 -2.27377 2650 
1622 1 0.148534 0.000404464 0.028927 0.000116 0 2.23815 0 2650 
431 1 0.152539 0.000588923 0.029046 0.000656 0 1.85604 0 2650 
1930 1 0.155149 0.000318144 0.029092 0.000116 0 2.23825 0 2650 
1915 1 0.030283 0.00133549 0.029516 0.000656 0 2.23969 0 2650 
1763 1 0.047656 0.000973245 0.029583 0.000423 0 2.23963 0 2650 
1177 1 0.0786013 0.000956065 0.0294581 0.000423 0.940171 1.44594 1.16025 2650 
944 1 0.055407 0.000140919 0.0302286 0.000116 4.01799 1.62777 -3.43374 2650 
2480 1 0.014403 0.00072407 0.029889 0.000423 0 -7 0 2650 
709 1 0.0731 0.000585762 0.030266 4.2e-05 0 2.23441 0 2650 
2170 1 0.091337 0.00093107 0.030379 0.000656 0 2.23968 0 2650 
71 1 0.106422 0.00045207 0.030376 0.000423 0 -7 0 2650 
620 1 0.130104 0.00072307 0.029694 0.000423 0 -7 0 2650 
1489 1 0.085601 0.00104107 0.029983 0.000423 0 2.23961 0 2650 
832 1 0.131787 0.000979585 0.0302676 0.000423 -0.116053 -3.76666 2.27377 2650 
1775 1 0.150402 4.37578e-05 0.030808 4.2e-05 0 2.23418 0 2650 
1603 1 0.023098 0.00059307 0.030883 0.000423 0 -7 0 2650 
877 1 0.039966 0.000206231 0.03105 0.000116 0 2.23825 0 2650 