ITEM: TIMESTEP
1004214
ITEM: NUMBER OF ATOMS
4382
ITEM: BOX BOUNDS ff ff ff
-0.15 0.15
-0.15 0.06
-0.15 0.15
ITEM: ATOMS id type x y z radius vx vy vz density 
741 1 -0.0423378 -0.0606008 -0.0543369 0.000116 -3.13419 0.111862 2.47771 2650 
1845 1 -0.0542599 -0.0604758 -0.0424239 0.000116 -1.63449 0.0619521 2.23005 2650 
3143 1 -0.0584011 -0.0587288 -0.0365285 0.000116 -1.71795 -1.51155 2.73474 2650 
3810 1 -0.0683084 -0.0524248 0.00881055 0.000116 0.519798 -0.11591 3.79738 2650 
2964 1 -0.00562594 -0.0449225 -0.0687272 4.2e-05 -1.43779 -1.89263 0.209098 2650 
3718 1 -0.00595223 -0.0125149 -0.0687011 4.2e-05 -3.75637 -0.376575 0.305776 2650 
1687 1 -0.000279457 -0.0148342 -0.068577 0.000423 -3.54374 -0.0897798 0.0846507 2650 
3945 1 -0.00760769 -0.00653298 -0.0658058 4.2e-05 -3.10939 -0.210939 -0.874689 2650 
1957 1 -0.0230775 -0.00456148 -0.0648329 0.000116 -2.96357 -0.166638 1.34712 2650 
4187 1 -0.0251196 -0.0161233 -0.0638084 0.000423 -3.13362 -0.477068 1.17462 2650 
2806 1 -0.0267978 -0.00930238 -0.0634394 0.000116 -3.16404 -0.741063 0.98734 2650 
821 1 -0.0422336 -0.00725779 -0.0537226 0.000423 -2.69392 -0.190024 1.63854 2650 
1760 1 -0.0446772 -0.0300699 -0.0525285 4.2e-05 -4.30307 1.92312 3.66567 2650 
4353 1 -0.0459804 -0.0117733 -0.0512918 0.000116 -2.55474 -0.204405 2.3107 2650 
734 1 -0.0477029 -0.0149464 -0.0496935 0.000116 -2.29247 -0.337594 2.25227 2650 
1818 1 -0.0289102 -0.00428187 -0.0490368 0.000116 -4.48399 -0.110149 -7.60562 2650 
4372 1 -0.0132774 -0.0111501 -0.0474881 4.2e-05 -2.02737 -0.664258 -7.37694 2650 
3330 1 -0.053231 -0.0112912 -0.0432113 0.000423 -2.33541 0.114151 2.83446 2650 
2317 1 -0.0559149 -0.0277927 -0.0393022 0.000656 -2.28501 -0.697933 3.28091 2650 
3329 1 -0.000520494 -0.00901052 -0.0390576 0.000423 -0.0723093 -0.668556 -5.57059 2650 
1270 1 -0.0567141 -0.00242214 -0.0390964 0.000116 -3.05731 -0.609492 4.41344 2650 
152 1 -0.0571377 -0.0157765 -0.0379246 0.000423 -1.60156 -0.380792 2.40834 2650 
691 1 -0.00257959 -0.0058529 -0.0316173 0.000423 -0.350383 -0.305072 -4.24982 2650 
3875 1 -0.035969 -0.0053665 -0.0287964 0.000423 -5.50105 -0.198364 -4.34559 2650 
208 1 -0.0628874 -0.0143678 -0.0281109 0.000116 -1.40468 -0.397833 3.17871 2650 
843 1 -0.064018 -0.0178159 -0.0254263 0.000116 -1.23959 -0.544356 2.99096 2650 
4133 1 -0.0647416 -0.0230821 -0.0235039 0.000116 -1.07151 -0.542731 3.13106 2650 
947 1 -0.039472 -0.00821459 -0.0228975 0.000116 -5.77413 -0.4681 -3.33943 2650 
3918 1 -0.0243662 -0.00463121 -0.0228235 0.000116 -3.64985 -0.148667 -3.41049 2650 
2618 1 -0.0014921 -0.00659454 -0.0183558 0.000116 -0.183396 -0.38071 -2.63358 2650 
2224 1 -0.0101869 -0.00427395 -0.0179658 0.000423 -1.40919 -0.146971 -2.42095 2650 
2578 1 -0.0537781 -0.010562 -0.0167184 0.000423 -8.13122 -0.599534 -2.45676 2650 
606 1 -0.000183 0.00500167 -0.016592 0.000116 0 -0.011753 0 2650 
615 1 -0.000619931 0.00877946 -0.0167696 0.000116 -0.304292 -0.202476 0.0637749 2650 
2713 1 -0.000763 0.0119727 -0.016767 0.000116 0 -0.011753 0 2650 
4116 1 -0.004072 -0.000655331 -0.016193 0.000116 0 -0.011753 0 2650 
93 1 -0.00354 -0.000244331 -0.016299 0.000116 0 -0.011753 0 2650 
1991 1 -0.002768 0.00133467 -0.01599 0.000656 0 -0.011753 0 2650 
736 1 -0.003429 0.00292667 -0.016474 0.000116 0 -0.011753 0 2650 
2013 1 -0.00316521 0.00410657 -0.016003 0.000423 0.00266818 -0.00871737 -0.00337826 2650 
3546 1 -0.002797 0.00606367 -0.016252 0.000423 0 -0.011753 0 2650 
2301 1 -0.004222 0.00677467 -0.016305 4.2e-05 0 -0.011753 0 2650 
188 1 -0.00068 0.00654367 -0.016516 0.000116 0 -0.011753 0 2650 
3616 1 -0.000938 0.00733867 -0.016074 4.2e-05 0 -0.011753 0 2650 
3934 1 -0.001977 0.00976367 -0.016218 0.000116 0 -0.011753 0 2650 
728 1 -0.00359077 0.010334 -0.0159377 0.000116 -0.0650853 0.147179 0.0609561 2650 
1357 1 -0.00420461 0.013569 -0.0159927 0.000423 -0.0662446 0.165624 0.033916 2650 
1239 1 -0.00600086 -0.00388802 -0.0156476 0.000423 -0.279397 -1.35553 -0.628867 2650 
3441 1 -0.005522 -0.00232133 -0.01502 0.000423 0 -0.011753 0 2650 
3733 1 -0.00248021 -0.000804455 -0.0153851 0.000656 -0.00903733 0.00595212 -0.0173299 2650 
330 1 -0.001698 -0.000980331 -0.015557 4.2e-05 0 -0.011753 0 2650 
2965 1 -2.2e-05 -0.000674331 -0.015341 4.2e-05 0 -0.011753 0 2650 
1679 1 -0.00361103 0.00367382 -0.0154283 0.000423 0.00038771 -0.00537817 -0.000606382 2650 
3645 1 -0.00152181 0.00358227 -0.0157262 0.000423 -0.016092 0.00258107 0.0270932 2650 
3789 1 -0.0017243 0.00411368 -0.0157655 0.000116 -0.0185147 0.0392615 -0.0216295 2650 
4165 1 -0.0056862 0.00509045 -0.0151577 0.000656 0.00622358 0.0106794 0.0127596 2650 
2399 1 -0.002418 0.00521567 -0.015541 0.000116 0 -0.011753 0 2650 
3322 1 -0.00445842 0.00564485 -0.0154567 0.000423 -0.0209456 -0.0191109 -0.033031 2650 
4296 1 -0.00157078 0.00577581 -0.0155584 0.000423 -0.000356005 -0.0132873 -0.00240934 2650 
1986 1 -0.00412725 0.00745055 -0.0156391 0.000656 0.00762539 0.0149956 0.0116892 2650 
2701 1 -0.00347105 0.00770179 -0.0150723 0.000116 0.0331549 0.247236 -0.00676049 2650 
2969 1 -0.001381 0.00778567 -0.015354 0.000656 0 -0.011753 0 2650 
978 1 -0.005372 0.00846167 -0.015286 0.000116 0 -0.011753 0 2650 
86 1 -0.002064 0.0110197 -0.015055 0.000116 0 -0.011753 0 2650 
3177 1 -0.001068 0.0108197 -0.015412 4.2e-05 0 -0.011753 0 2650 
3830 1 -0.006879 0.0113157 -0.015411 4.2e-05 0 -0.011753 0 2650 
884 1 -0.00483009 0.0123078 -0.0153993 0.000656 -0.0291238 0.0251675 0.0345608 2650 
938 1 -0.000869 0.0122257 -0.015416 0.000116 0 -0.011753 0 2650 
3632 1 -0.006134 0.0129417 -0.015144 0.000423 0 -0.011753 0 2650 
1943 1 -0.00308101 -0.00333742 -0.0144729 0.000116 -0.152053 -0.0243977 -0.71426 2650 
2256 1 -0.001753 -0.00287033 -0.014775 0.000116 0 -0.011753 0 2650 
747 1 -0.001416 -0.00285033 -0.014317 0.000116 0 -0.011753 0 2650 
3295 1 -0.00233012 -0.0022446 -0.0149689 0.000656 -0.0259609 -0.0460209 -0.0625831 2650 
3502 1 -0.001236 -0.00187533 -0.014816 4.2e-05 0 -0.011753 0 2650 
3303 1 -0.00674813 -0.00123683 -0.0145003 0.000656 -0.0119966 -0.0726635 -0.0251966 2650 
1640 1 -0.001358 -0.000542331 -0.014495 4.2e-05 0 -0.011753 0 2650 
2313 1 -0.005044 0.000301669 -0.014923 0.000656 0 -0.011753 0 2650 
2413 1 -0.003433 0.000139669 -0.014868 4.2e-05 0 -0.011753 0 2650 
1053 1 -0.007469 0.00137367 -0.014946 0.000116 0 -0.011753 0 2650 
2332 1 -0.003268 0.00166467 -0.014853 0.000423 0 -0.011753 0 2650 
3239 1 -0.002155 0.00158367 -0.014442 0.000116 0 -0.011753 0 2650 
1569 1 -0.0018958 0.00383498 -0.0147876 0.000423 -0.0214881 0.00570095 0.0411068 2650 
2547 1 -0.00748358 0.00422724 -0.0143685 0.000423 -0.044095 0.0528746 0.0464883 2650 
1219 1 -0.00445496 0.00444703 -0.0143746 0.000656 0.035204 0.0225104 -0.0281999 2650 
220 1 -0.003649 0.00427867 -0.014897 4.2e-05 0 -0.011753 0 2650 
3147 1 -0.00180159 0.00455272 -0.0149873 0.000116 -0.00706837 0.0221131 0.0132401 2650 
104 1 -0.00218 0.00452767 -0.014554 4.2e-05 0 -0.011753 0 2650 
3121 1 -0.007407 0.00509767 -0.014654 0.000423 0 -0.011753 0 2650 
3564 1 -0.000147 0.00700467 -0.014738 0.000423 0 -0.011753 0 2650 
2438 1 -0.005612 0.00757667 -0.014612 0.000423 0 -0.011753 0 2650 
3365 1 -0.002315 0.00764167 -0.014552 0.000116 0 -0.011753 0 2650 
713 1 -0.00453807 0.00868303 -0.0144098 0.000423 -0.0205718 -0.00213651 0.0254432 2650 
4190 1 -0.007319 0.00931167 -0.014559 0.000423 0 -0.011753 0 2650 
3515 1 -0.0047758 0.00967987 -0.0147892 0.000656 -0.00554086 -0.000306407 -0.00427205 2650 
2250 1 -0.00392797 0.0103535 -0.0147791 0.000423 -0.155375 0.0227889 0.0380727 2650 
371 1 -0.000510541 0.0109338 -0.0142683 0.000423 -0.000508818 -0.00613125 -0.00679769 2650 
1228 1 -0.001302 0.0110967 -0.014946 0.000423 0 -0.011753 0 2650 
355 1 -0.0671908 -0.013317 -0.0137237 0.000423 -0.629832 -0.226046 3.11675 2650 
3229 1 -0.006614 -0.00275233 -0.01374 0.000423 0 -0.011753 0 2650 
327 1 -0.003849 -0.00263233 -0.013874 4.2e-05 0 -0.011753 0 2650 
2705 1 -0.001432 -0.00281333 -0.013674 0.000116 0 -0.011753 0 2650 
2939 1 -0.008405 -0.00182933 -0.013483 0.000116 0 -0.011753 0 2650 
3622 1 -0.00547437 -0.00234249 -0.0135619 0.000656 0.00467838 -0.0472728 -0.0117267 2650 
1393 1 -0.009523 -0.00152533 -0.013534 0.000116 0 -0.011753 0 2650 
2783 1 -0.003328 -0.000490331 -0.013758 0.000423 0 -0.011753 0 2650 
4126 1 -0.001667 -0.000417331 -0.013741 0.000116 0 -0.011753 0 2650 
3778 1 -0.003893 0.00102667 -0.013816 0.000423 0 -0.011753 0 2650 
1620 1 -0.008456 0.00304567 -0.013856 0.000116 0 -0.011753 0 2650 
1059 1 -0.00668032 0.00448795 -0.0141849 0.000116 -0.00683586 -0.0187509 0.0600761 2650 
3587 1 -0.006279 0.00430267 -0.013694 0.000116 0 -0.011753 0 2650 
2485 1 -0.00661417 0.00475476 -0.0140454 0.000116 0.00399842 0.0209962 0.0466364 2650 
1288 1 -0.002467 0.00894467 -0.014044 0.000116 0 -0.011753 0 2650 
1974 1 -0.0021 0.00966567 -0.01365 4.2e-05 0 -0.011753 0 2650 
171 1 -0.001998 0.00956667 -0.013459 0.000116 0 -0.011753 0 2650 
2222 1 -0.000169 0.00957367 -0.014111 0.000423 0 -0.011753 0 2650 
581 1 -0.005568 0.0104657 -0.014167 0.000423 0 -0.011753 0 2650 
1476 1 -0.006941 0.0117447 -0.013435 0.000423 0 -0.011753 0 2650 
3669 1 -0.000597 0.0118507 -0.014068 0.000423 0 -0.011753 0 2650 
1409 1 -0.00044 0.0127247 -0.013868 0.000116 0 -0.011753 0 2650 
3294 1 -0.00618324 0.0272449 -0.0140506 0.000656 -0.0563035 0.49326 0.113749 2650 
428 1 -0.00922 -0.00278333 -0.013206 0.000116 0 -0.011753 0 2650 
3015 1 -0.008364 -0.00283833 -0.013043 0.000423 0 -0.011753 0 2650 
827 1 -0.005975 -0.00295633 -0.013005 0.000116 0 -0.011753 0 2650 
167 1 -0.004273 -0.00279833 -0.012826 0.000116 0 -0.011753 0 2650 
1487 1 -0.004643 -0.00238933 -0.013241 0.000116 0 -0.011753 0 2650 
2732 1 -0.002992 -0.00286333 -0.013183 0.000116 0 -0.011753 0 2650 
3633 1 -0.00941 -0.00225933 -0.013111 0.000423 0 -0.011753 0 2650 
2685 1 -0.00770263 -0.00198363 -0.012681 0.000423 -0.0443677 -0.0522862 0.0323329 2650 
4056 1 -0.00499553 -0.000948721 -0.0132121 0.000656 0.0589984 -0.0321199 -0.018168 2650 
1924 1 -0.0103345 -0.000755547 -0.012673 0.000423 3.99817e-05 -0.053411 0.039122 2650 
3551 1 -0.005293 0.00108567 -0.013215 0.000423 0 -0.011753 0 2650 
1125 1 -0.000165 0.00167267 -0.013134 0.000423 0 -0.011753 0 2650 
4371 1 -0.000719 0.00248367 -0.012831 0.000116 0 -0.011753 0 2650 
2283 1 -0.000701 0.00279867 -0.012847 0.000116 0 -0.011753 0 2650 
1589 1 -0.00878968 0.00394393 -0.0132794 0.000423 -0.0647442 0.0335493 0.0762813 2650 
1595 1 -0.007474 0.00382967 -0.012756 0.000423 0 -0.011753 0 2650 
2525 1 -0.004063 0.00317167 -0.013231 4.2e-05 0 -0.011753 0 2650 
2609 1 -0.00886 0.00471167 -0.013248 0.000116 0 -0.011753 0 2650 
2619 1 -0.005851 0.00398767 -0.012854 0.000116 0 -0.011753 0 2650 
3880 1 -0.010277 0.00490367 -0.012913 0.000423 0 -0.011753 0 2650 
3917 1 -0.003984 0.00547267 -0.012703 0.000116 0 -0.011753 0 2650 
2194 1 -0.002781 0.00512567 -0.012701 4.2e-05 0 -0.011753 0 2650 
933 1 -0.0100876 0.00579068 -0.0130792 0.000423 -0.102456 0.0140485 0.124832 2650 
2918 1 -0.00757 0.00606267 -0.012948 0.000116 0 -0.011753 0 2650 
2059 1 -0.003583 0.00568167 -0.012756 0.000116 0 -0.011753 0 2650 
4241 1 -0.00101929 0.00567073 -0.0128816 0.000116 0.0418184 0.0132573 0.0231045 2650 
1327 1 -0.00901933 0.00783795 -0.0129203 0.000656 -0.0967578 0.0679001 0.109981 2650 
4078 1 -0.00609336 0.00771485 -0.0129073 0.000423 0.00523349 0.00134176 -0.00166274 2650 
3035 1 -0.0103773 0.0079135 -0.0127941 0.000116 -0.147222 0.0631952 0.172039 2650 
2322 1 -0.00697368 0.00831653 -0.0134105 0.000656 -0.00732336 -0.00366906 -0.00588437 2650 
2777 1 -0.00527245 0.00806596 -0.0130254 0.000423 -0.0600041 0.0325706 0.0604979 2650 
1427 1 -0.002948 0.00801267 -0.013376 4.2e-05 0 -0.011753 0 2650 
3259 1 -0.008055 0.00907767 -0.013388 0.000116 0 -0.011753 0 2650 
4318 1 -0.00774448 0.00879964 -0.0127915 0.000423 -0.00589465 -0.00768269 0.00318441 2650 
1795 1 -0.008775 0.0100117 -0.012959 0.000423 0 -0.011753 0 2650 
1769 1 -0.004822 0.00993267 -0.013243 0.000656 0 -0.011753 0 2650 
3106 1 -0.00184421 0.00964167 -0.0127471 0.000423 -0.0623064 0.00959056 -0.242401 2650 
2596 1 -0.000970396 0.0107024 -0.012829 0.000116 0.0372385 0.167955 -0.209269 2650 
205 1 -0.000744 0.0107287 -0.01334 0.000116 0 -0.011753 0 2650 
4314 1 -0.00367227 0.0115237 -0.0132482 0.000423 -0.092085 0.0376702 0.0423056 2650 
1775 1 -0.008218 0.0134037 -0.012996 0.000423 0 -0.011753 0 2650 
4160 1 -0.006657 0.0130947 -0.013271 4.2e-05 0 -0.011753 0 2650 
1346 1 -0.00137681 0.0128509 -0.0127202 0.000423 0.0112383 0.146251 0.0960885 2650 
3644 1 -0.000733 0.0133997 -0.013392 0.000423 0 -0.011753 0 2650 
3588 1 -0.00340183 0.0216879 -0.0128622 0.000116 0.500572 0.21911 0.239725 2650 
2957 1 -0.010592 -0.00257933 -0.012102 4.2e-05 0 -0.011753 0 2650 
2238 1 -0.00692051 -0.00254806 -0.0124376 0.000423 0.0131625 -0.0386301 0.0150545 2650 
4068 1 -0.001953 -0.00309733 -0.012327 0.000423 0 -0.011753 0 2650 
3385 1 -0.00153362 -0.00271166 -0.0123611 0.000116 0.210455 -0.166631 -0.035107 2650 
868 1 -0.000201 -0.00262933 -0.012301 0.000116 0 -0.011753 0 2650 
3200 1 -0.00617407 -0.00204113 -0.0123726 0.000423 -0.0037223 -0.0499527 0.010669 2650 
4150 1 -0.001319 -0.00225433 -0.012208 0.000116 0 -0.011753 0 2650 
3261 1 -0.010456 -0.00140533 -0.012294 0.000116 0 -0.011753 0 2650 
545 1 -0.002328 -0.000803331 -0.012432 4.2e-05 0 -0.011753 0 2650 
249 1 -0.00967405 -0.000265524 -0.0122319 0.000423 -0.0404414 -0.0377152 0.0629853 2650 
2819 1 -0.007468 -0.000269331 -0.012046 0.000116 0 -0.011753 0 2650 
2468 1 -0.003167 -0.000430331 -0.012131 0.000423 0 -0.011753 0 2650 
1763 1 -0.001143 -0.000142331 -0.012442 0.000656 0 -0.011753 0 2650 
950 1 -0.010031 0.000462669 -0.011866 0.000116 0 -0.011753 0 2650 
1901 1 -0.00360421 0.000576225 -0.0121762 0.000423 -0.0220801 -0.0570589 0.0406976 2650 
3643 1 -0.00442697 0.000964512 -0.0120568 0.000423 -0.0276464 -0.00536394 0.0154079 2650 
3637 1 -0.002026 0.00103667 -0.012108 0.000423 0 -0.011753 0 2650 
623 1 -0.005429 0.00221067 -0.012246 0.000116 0 -0.011753 0 2650 
1422 1 -0.003881 0.00170367 -0.012349 4.2e-05 0 -0.011753 0 2650 
3411 1 -0.0102661 0.00242434 -0.0121114 0.000656 0.0140632 0.0288977 0.0473557 2650 
1799 1 -0.003237 0.00251867 -0.012061 0.000423 0 -0.011753 0 2650 
2293 1 -0.00142833 0.00307489 -0.0126033 0.000116 0.0416688 0.071753 -0.100968 2650 
2813 1 -1e-05 0.00237067 -0.012237 0.000116 0 -0.011753 0 2650 
2690 1 -0.000333 0.00314167 -0.012265 0.000423 0 -0.011753 0 2650 
3956 1 -0.008956 0.00328967 -0.012273 0.000656 0 -0.011753 0 2650 
3389 1 -0.010415 0.00396967 -0.012026 0.000116 0 -0.011753 0 2650 
2253 1 -0.00338073 0.00397049 -0.0126093 0.000423 0.0920831 0.035812 0.016033 2650 
856 1 -0.00389 0.00418867 -0.0119 0.000116 0 -0.011753 0 2650 
2763 1 -0.00107659 0.00438792 -0.012518 0.000423 0.119007 -0.206658 0.149114 2650 
1657 1 -0.00866614 0.00517122 -0.0120411 0.000656 -0.00770092 -0.0112608 -0.00233815 2650 
411 1 -0.009436 0.00563767 -0.012079 0.000116 0 -0.011753 0 2650 
3826 1 -0.009208 0.00586467 -0.012552 0.000116 0 -0.011753 0 2650 
3316 1 -0.008979 0.00661767 -0.012376 0.000423 0 -0.011753 0 2650 
1261 1 -0.007462 0.00652167 -0.012403 0.000423 0 -0.011753 0 2650 
3362 1 -0.002672 0.00663067 -0.012199 0.000116 0 -0.011753 0 2650 
3446 1 -0.002592 0.00762467 -0.012627 0.000423 0 -0.011753 0 2650 
3030 1 -0.001189 0.00812767 -0.012596 0.000116 0 -0.011753 0 2650 
191 1 -0.011348 0.00944867 -0.012254 0.000116 0 -0.011753 0 2650 
70 1 -0.010029 0.00905267 -0.01242 0.000116 0 -0.011753 0 2650 
3847 1 -0.009739 0.0100497 -0.012406 0.000656 0 -0.011753 0 2650 
3173 1 -0.004958 0.0102567 -0.012321 4.2e-05 0 -0.011753 0 2650 
1495 1 -0.004483 0.00959567 -0.012591 0.000116 0 -0.011753 0 2650 
1250 1 -0.007399 0.0107747 -0.012448 0.000423 0 -0.011753 0 2650 
1381 1 -0.00383984 0.0104568 -0.0125844 0.000116 -0.123304 0.190039 -0.120274 2650 
2109 1 -0.00199466 0.0105975 -0.0123198 0.000423 -0.0263796 0.073224 -0.0180073 2650 
2630 1 -0.001036 0.0104647 -0.012074 4.2e-05 0 -0.011753 0 2650 
4002 1 -0.000443 0.0102887 -0.01223 0.000116 0 -0.011753 0 2650 
65 1 -0.009488 0.0116697 -0.011959 0.000116 0 -0.011753 0 2650 
911 1 -0.00627667 0.012236 -0.0120738 0.000423 -0.153272 0.0598619 0.0257807 2650 
1423 1 -0.00145 0.0119447 -0.012526 4.2e-05 0 -0.011753 0 2650 
2483 1 -0.008006 0.0128267 -0.012441 0.000116 0 -0.011753 0 2650 
1578 1 -0.007713 0.0126657 -0.011972 0.000423 0 -0.011753 0 2650 
2205 1 -0.00482041 0.0131139 -0.0123397 0.000656 0.000183776 -0.0119531 -0.000657984 2650 
1826 1 -0.00264865 0.0172991 -0.0123257 0.000116 0.269854 0.44368 -0.0816137 2650 
1964 1 -0.0442539 -0.00516349 -0.0111777 0.000116 -6.70132 -0.186874 -1.7165 2650 
3204 1 -0.021547 -0.00416081 -0.0117644 0.000423 -2.93588 -0.136077 -1.48222 2650 
704 1 -0.01034 -0.00305033 -0.011479 0.000423 0 -0.011753 0 2650 
3999 1 -0.005715 -0.00289433 -0.011742 0.000423 0 -0.011753 0 2650 
3679 1 -0.012092 -0.00209233 -0.011604 0.000116 0 -0.011753 0 2650 
2072 1 -0.009308 -0.00223033 -0.011721 0.000116 0 -0.011753 0 2650 
3505 1 -0.006952 -0.00113433 -0.011235 4.2e-05 0 -0.011753 0 2650 
3191 1 -0.00451211 -0.00139695 -0.0115029 0.000656 -0.0442695 0.00235925 -0.00260127 2650 
1022 1 -0.002093 -0.00126433 -0.011454 0.000423 0 -0.011753 0 2650 
123 1 -0.0109292 -0.000637345 -0.0112682 0.000423 -0.0212637 -0.0293113 -0.00580498 2650 
2166 1 -0.009005 -0.000724331 -0.011549 0.000116 0 -0.011753 0 2650 
2022 1 -0.00504041 -0.000464258 -0.0112372 0.000423 -0.025362 0.0209777 0.00742457 2650 
2827 1 -0.001988 0.000404669 -0.011163 0.000116 0 -0.011753 0 2650 
440 1 -0.00061 0.000167669 -0.011485 4.2e-05 0 -0.011753 0 2650 
4215 1 -0.011184 0.00227667 -0.011524 0.000423 0 -0.011753 0 2650 
2579 1 -0.008716 0.00228667 -0.011261 0.000423 0 -0.011753 0 2650 
1452 1 -0.00136201 0.00209791 -0.011225 0.000423 0.00554637 -0.012591 0.0031522 2650 
2279 1 -0.011345 0.00283967 -0.01145 0.000116 0 -0.011753 0 2650 
3535 1 -9.9e-05 0.00257967 -0.011488 0.000423 0 -0.011753 0 2650 
3223 1 -0.010476 0.00338167 -0.011335 0.000423 0 -0.011753 0 2650 
1063 1 -0.009531 0.00389367 -0.011683 0.000116 0 -0.011753 0 2650 
3894 1 -0.005583 0.00333867 -0.011098 0.000116 0 -0.011753 0 2650 
3201 1 -0.00261591 0.00366591 -0.0111991 0.000423 0.0982966 0.0107837 0.0662699 2650 
3383 1 -0.011681 0.00488867 -0.011229 0.000116 0 -0.011753 0 2650 
3542 1 -0.003838 0.00506467 -0.011253 0.000423 0 -0.011753 0 2650 
2471 1 -0.00804943 0.00587101 -0.0114134 0.000423 -0.0907234 0.0202287 0.0449903 2650 
2294 1 -0.004894 0.00557467 -0.011565 0.000116 0 -0.011753 0 2650 
878 1 -0.003908 0.00605767 -0.011202 4.2e-05 0 -0.011753 0 2650 
708 1 -0.00252 0.00577067 -0.011391 0.000423 0 -0.011753 0 2650 
1822 1 -0.008034 0.00662767 -0.011166 0.000116 0 -0.011753 0 2650 
234 1 -0.004437 0.00660067 -0.011677 0.000423 0 -0.011753 0 2650 
1758 1 -0.00201 0.00688867 -0.01144 4.2e-05 0 -0.011753 0 2650 
1215 1 -0.00961002 0.00716951 -0.0114986 0.000656 -0.00949184 -0.0199862 0.00772603 2650 
1590 1 -0.00884261 0.00789169 -0.011837 0.000423 0.0232142 0.0391474 0.112449 2650 
222 1 -0.00128054 0.00758561 -0.0114064 0.000656 -0.00297797 -0.0641339 -0.0320517 2650 
4066 1 -0.00631515 0.0083314 -0.0115918 0.000656 -0.00432864 0.007729 0.025362 2650 
4027 1 -0.003218 0.00801967 -0.011075 0.000116 0 -0.011753 0 2650 
2913 1 -0.00328707 0.00864882 -0.0112877 0.000116 -0.0362513 -0.0139142 0.0167742 2650 
2409 1 -0.002586 0.00795867 -0.011527 4.2e-05 0 -0.011753 0 2650 
2798 1 -0.008755 0.00905867 -0.01131 0.000423 0 -0.011753 0 2650 
1617 1 -0.00424 0.00994767 -0.011492 0.000116 0 -0.011753 0 2650 
3684 1 -0.00483 0.0112297 -0.011273 0.000116 0 -0.011753 0 2650 
1663 1 -0.009704 0.0123427 -0.011499 0.000423 0 -0.011753 0 2650 
3145 1 -0.006381 0.0124107 -0.011273 0.000116 0 -0.011753 0 2650 
2111 1 -0.009632 0.0133297 -0.011343 0.000423 0 -0.011753 0 2650 
1143 1 -0.00187984 0.0129138 -0.0117178 0.000423 0.00744219 0.00969658 -0.00437689 2650 
976 1 -0.005828 0.0137877 -0.011785 0.000116 0 -0.011753 0 2650 
1900 1 -0.00393319 0.0137584 -0.0117037 0.000423 -0.0355934 0.197623 0.0655201 2650 
4365 1 -0.00429697 0.0150548 -0.011589 0.000116 -0.0372545 0.279327 0.100572 2650 
2722 1 -0.0112991 0.0245477 -0.0111799 0.000116 -0.0715147 0.365051 0.247857 2650 
2123 1 -0.00309467 -0.00683295 -0.0103863 0.000423 -0.433759 -0.390497 -1.54072 2650 
3422 1 -0.0220736 -0.00522188 -0.0108639 0.000423 -3.47333 0.292117 -1.68618 2650 
817 1 -0.0258335 -0.00427678 -0.0108207 0.000423 -3.73166 -0.12872 -1.55318 2650 
3266 1 -0.00745044 -0.00397776 -0.0103624 0.000116 -0.744179 -0.17761 -1.01128 2650 
2820 1 -0.007052 -0.00287433 -0.010962 0.000116 0 -0.011753 0 2650 
3265 1 -0.006001 -0.00288633 -0.010684 0.000116 0 -0.011753 0 2650 
4373 1 -0.004239 -0.00186833 -0.010869 4.2e-05 0 -0.011753 0 2650 
3426 1 -0.000992046 -0.0021284 -0.0105741 0.000423 -0.000402393 -0.0123419 -0.000971192 2650 
2848 1 -0.010456 -0.000833331 -0.010698 4.2e-05 0 -0.011753 0 2650 
3640 1 -0.00957102 -0.000990893 -0.0105331 0.000423 0.0106565 -0.0526658 0.0459604 2650 
3603 1 -0.004768 -0.00153033 -0.010424 0.000116 0 -0.011753 0 2650 
15 1 -0.001892 -0.00147733 -0.010407 0.000423 0 -0.011753 0 2650 
250 1 -0.0105575 -7.15848e-05 -0.0106878 0.000423 -0.094958 -0.0322937 0.0593026 2650 
3093 1 -0.002889 -0.000238331 -0.010782 0.000423 0 -0.011753 0 2650 
2130 1 -0.000316 -0.000413331 -0.010491 0.000423 0 -0.011753 0 2650 
3960 1 -0.008634 7.46693e-05 -0.010875 0.000423 0 -0.011753 0 2650 
388 1 -0.008271 0.000670669 -0.010879 0.000116 0 -0.011753 0 2650 
3673 1 -0.00272 0.000616669 -0.010833 0.000423 0 -0.011753 0 2650 
3284 1 -0.001323 0.000641669 -0.010635 4.2e-05 0 -0.011753 0 2650 
1193 1 -4.3e-05 0.000152669 -0.010628 0.000116 0 -0.011753 0 2650 
3866 1 -0.011939 0.00112867 -0.01034 0.000423 0 -0.011753 0 2650 
3311 1 -0.0109038 0.000876362 -0.0105967 0.000423 -0.150875 0.0283449 0.0239838 2650 
2542 1 -0.005905 0.000955669 -0.010347 0.000423 0 -0.011753 0 2650 
3530 1 -0.000573 0.00111167 -0.010526 0.000423 0 -0.011753 0 2650 
1233 1 -0.012882 0.00227067 -0.010287 0.000423 0 -0.011753 0 2650 
4104 1 -0.009745 0.00302967 -0.010868 0.000423 0 -0.011753 0 2650 
497 1 -0.00574 0.00326467 -0.010398 0.000116 0 -0.011753 0 2650 
124 1 -0.005032 0.00316967 -0.01051 0.000423 0 -0.011753 0 2650 
1192 1 -0.004051 0.00348867 -0.010435 0.000116 0 -0.011753 0 2650 
3235 1 -0.00654601 0.00445484 -0.010598 0.000423 -0.00988696 -0.0212582 0.0528137 2650 
2912 1 -0.006578 0.00543167 -0.010859 0.000116 0 -0.011753 0 2650 
3787 1 -0.006362 0.00586767 -0.010668 0.000116 0 -0.011753 0 2650 
760 1 -0.006943 0.00620467 -0.010573 4.2e-05 0 -0.011753 0 2650 
861 1 -0.006339 0.00637867 -0.010358 0.000116 0 -0.011753 0 2650 
2326 1 -0.011808 0.00715767 -0.010725 0.000423 0 -0.011753 0 2650 
2500 1 -0.010648 0.00775367 -0.010771 0.000116 0 -0.011753 0 2650 
4166 1 -0.00421139 0.00786523 -0.0105277 0.000656 -0.000388776 -0.0117045 -0.000976021 2650 
2948 1 -0.002008 0.00757067 -0.010384 0.000116 0 -0.011753 0 2650 
3727 1 -0.004412 0.00850867 -0.010287 4.2e-05 0 -0.011753 0 2650 
3456 1 -0.00345898 0.00861644 -0.0107163 0.000423 -0.00083179 -0.0111461 -0.0042803 2650 
1935 1 -0.00405722 0.0088243 -0.0107344 0.000116 -0.0650223 -0.119388 0.0262199 2650 
1010 1 -0.011662 0.00976667 -0.010903 0.000423 0 -0.011753 0 2650 
3132 1 -0.007716 0.00982967 -0.01033 0.000116 0 -0.011753 0 2650 
2097 1 -0.00889 0.0103227 -0.010395 0.000656 0 -0.011753 0 2650 
89 1 -0.003936 0.0103747 -0.010466 0.000116 0 -0.011753 0 2650 
2759 1 -0.011495 0.0113227 -0.010915 0.000656 0 -0.011753 0 2650 
1376 1 -0.009927 0.0110687 -0.010971 0.000116 0 -0.011753 0 2650 
2261 1 -0.007381 0.0114197 -0.010514 0.000116 0 -0.011753 0 2650 
233 1 -0.004974 0.0116557 -0.010958 0.000423 0 -0.011753 0 2650 
4167 1 -0.003538 0.0117627 -0.010916 0.000656 0 -0.011753 0 2650 
2260 1 -0.008542 0.0120407 -0.010892 0.000116 0 -0.011753 0 2650 
1802 1 -0.004638 0.0124157 -0.010282 0.000423 0 -0.011753 0 2650 
499 1 -0.011613 0.0127907 -0.010379 0.000116 0 -0.011753 0 2650 
1754 1 -0.008854 0.0128967 -0.010611 4.2e-05 0 -0.011753 0 2650 
1913 1 -0.008189 0.0130307 -0.010954 0.000423 0 -0.011753 0 2650 
3899 1 -0.004387 0.0129147 -0.010427 0.000116 0 -0.011753 0 2650 
3595 1 -0.007357 0.0135997 -0.010628 0.000116 0 -0.011753 0 2650 
3767 1 -0.006013 0.0135157 -0.010843 0.000423 0 -0.011753 0 2650 
963 1 -0.000669 0.0135787 -0.010387 0.000116 0 -0.011753 0 2650 
2271 1 -0.0187651 -0.00505396 -0.00955983 0.000116 -2.21569 -0.270817 -1.10977 2650 
3409 1 -0.0087364 -0.00327356 -0.00981205 0.000656 -0.0237104 -0.0329197 -0.0228617 2650 
1068 1 -0.0111785 -0.00309055 -0.0096449 0.000116 0.0038791 -0.0564675 -0.00494316 2650 
3652 1 -0.0112765 -0.00256134 -0.00958703 0.000423 -0.025045 -0.0550861 -0.00545894 2650 
4285 1 -0.00988329 -0.00295283 -0.0100481 0.000423 -0.0326668 -0.0127335 -0.0140672 2650 
3933 1 -0.006596 -0.00216733 -0.009623 0.000116 0 -0.011753 0 2650 
3815 1 -0.000751031 -0.00185685 -0.0101735 0.000116 0.253205 0.0181453 -0.140966 2650 
4306 1 -0.0114157 -0.00118099 -0.0096082 0.000423 -0.11234 0.0471428 -0.0463662 2650 
417 1 -0.004944 -0.000801331 -0.009884 0.000116 0 -0.011753 0 2650 
939 1 -0.001916 -0.00111133 -0.009682 0.000116 0 -0.011753 0 2650 
1630 1 -0.00227 -0.00104633 -0.00958 0.000116 0 -0.011753 0 2650 
3460 1 -0.013084 5.86693e-05 -0.009951 0.000116 0 -0.011753 0 2650 
2778 1 -0.01202 0.000323669 -0.00976 0.000423 0 -0.011753 0 2650 
3756 1 -0.0103762 0.000385427 -0.00995784 0.000423 -0.117965 0.0102938 0.0627101 2650 
1562 1 -0.002141 0.000723669 -0.010154 0.000423 0 -0.011753 0 2650 
1750 1 -0.011512 0.000965669 -0.01018 4.2e-05 0 -0.011753 0 2650 
281 1 -0.0102565 0.0011402 -0.00984376 0.000116 -0.0710546 0.0438983 0.0664225 2650 
1160 1 -0.0101872 0.00136952 -0.0101659 0.000116 -0.0234924 0.0511302 -0.0170349 2650 
3264 1 -0.003542 0.00115267 -0.010108 0.000116 0 -0.011753 0 2650 
800 1 -0.00114 0.00144267 -0.009738 0.000423 0 -0.011753 0 2650 
2164 1 -0.012835 0.00158867 -0.009898 0.000116 0 -0.011753 0 2650 
2975 1 -0.011752 0.00220167 -0.009985 0.000656 0 -0.011753 0 2650 
4374 1 -0.008921 0.00233667 -0.009568 4.2e-05 0 -0.011753 0 2650 
3250 1 -0.008233 0.00230967 -0.010036 0.000116 0 -0.011753 0 2650 
3135 1 -0.00038 0.00211867 -0.010152 0.000116 0 -0.011753 0 2650 
3832 1 -0.01255 0.00257067 -0.009616 4.2e-05 0 -0.011753 0 2650 
3324 1 -0.0115766 0.00386195 -0.00971805 0.000423 -0.0148526 -0.0100043 0.0122397 2650 
1977 1 -0.006037 0.00357967 -0.009842 4.2e-05 0 -0.011753 0 2650 
364 1 -0.008943 0.00453967 -0.009746 0.000423 0 -0.011753 0 2650 
3790 1 -0.012918 0.00551067 -0.010098 0.000116 0 -0.011753 0 2650 
3031 1 -0.011934 0.00507967 -0.00971 0.000116 0 -0.011753 0 2650 
3380 1 -0.00523143 0.0047363 -0.00970025 0.000116 0.216567 -0.0280292 -0.31276 2650 
2474 1 -0.001928 0.00492367 -0.009724 0.000423 0 -0.011753 0 2650 
3116 1 -0.01058 0.00558067 -0.009568 0.000423 0 -0.011753 0 2650 
4256 1 -0.007946 0.00627367 -0.010197 0.000116 0 -0.011753 0 2650 
958 1 -0.001223 0.00607867 -0.009713 0.000116 0 -0.011753 0 2650 
3364 1 -0.006241 0.00637267 -0.010015 0.000116 0 -0.011753 0 2650 
1310 1 -0.011355 0.00763267 -0.010263 4.2e-05 0 -0.011753 0 2650 
3071 1 -0.009089 0.00843767 -0.009836 4.2e-05 0 -0.011753 0 2650 
2581 1 -0.004751 0.00943467 -0.01 0.000423 0 -0.011753 0 2650 
3967 1 -0.008054 0.00998932 -0.00949586 0.000423 -0.00817862 -0.00706642 0.00830439 2650 
2344 1 -0.001557 0.0103357 -0.009839 0.000423 0 -0.011753 0 2650 
3361 1 -5.4e-05 0.0105847 -0.010103 0.000116 0 -0.011753 0 2650 
301 1 -0.005514 0.0114737 -0.009906 0.000116 0 -0.011753 0 2650 
3784 1 -0.00900455 0.0124896 -0.00972256 0.000116 -0.0748727 0.0872127 -0.0809338 2650 
660 1 -0.002925 0.0119147 -0.009723 4.2e-05 0 -0.011753 0 2650 
1827 1 -0.000405 0.0124197 -0.009578 0.000116 0 -0.011753 0 2650 
1087 1 -0.005985 0.0127267 -0.009545 0.000116 0 -0.011753 0 2650 
2781 1 -0.00327338 0.0128444 -0.0100082 0.000423 -0.0117237 -0.0176724 0.00043508 2650 
1525 1 -0.00472539 0.0229319 -0.00987671 0.000116 0.0348354 0.358887 0.286739 2650 
649 1 -0.0573197 -0.0122699 -0.0091832 0.000116 -8.74216 -0.743577 -1.21861 2650 
4342 1 -0.00896345 -0.00477103 -0.00912094 0.000116 -1.36699 -0.226556 -1.32172 2650 
3547 1 -0.0134878 -0.00397227 -0.00872576 0.000423 -1.51102 -0.136786 -1.02688 2650 
1372 1 -0.0109829 -0.00371153 -0.00911308 0.000423 -0.878204 -0.131773 -0.811649 2650 
2846 1 -0.006122 -0.00325333 -0.009068 4.2e-05 0 -0.011753 0 2650 
1735 1 -0.00271071 -0.00301619 -0.00882537 0.000116 0.0763613 -0.0562976 -0.109286 2650 
1787 1 -0.012291 -0.00188133 -0.008935 0.000423 0 -0.011753 0 2650 
661 1 -0.00849202 -0.00201935 -0.00880704 0.000656 -0.0248865 -0.0346178 0.0286859 2650 
756 1 -0.007322 -0.00190233 -0.009147 0.000116 0 -0.011753 0 2650 
2436 1 -0.0102098 -0.000268432 -0.00876305 0.000423 -0.203474 -0.110277 0.0688352 2650 
3196 1 -0.00685758 -0.000630072 -0.00924446 0.000423 0.0418395 0.00921167 -0.158288 2650 
3393 1 -0.006109 -0.000642331 -0.008736 4.2e-05 0 -0.011753 0 2650 
159 1 -0.005821 -3.03307e-05 -0.009096 0.000423 0 -0.011753 0 2650 
1690 1 -0.004681 -0.000765331 -0.00917 0.000423 0 -0.011753 0 2650 
608 1 -0.01048 0.00228267 -0.008875 0.000116 0 -0.011753 0 2650 
193 1 -0.010056 0.00172367 -0.009264 0.000116 0 -0.011753 0 2650 
2299 1 -0.003792 0.00217667 -0.009457 4.2e-05 0 -0.011753 0 2650 
3450 1 -0.011877 0.00251267 -0.008756 0.000423 0 -0.011753 0 2650 
1184 1 -0.011934 0.00276467 -0.00927 0.000116 0 -0.011753 0 2650 
1121 1 -0.002698 0.00239467 -0.00928 0.000423 0 -0.011753 0 2650 
2541 1 -0.00658692 0.00403161 -0.00923992 0.000656 -0.00129575 -0.0112361 0.000264226 2650 
3558 1 -0.007141 0.00525567 -0.00937 0.000423 0 -0.011753 0 2650 
675 1 -0.000788218 0.00551756 -0.00887978 0.000423 -0.0566246 0.146833 -0.151891 2650 
1171 1 -0.008755 0.00591267 -0.00943 0.000116 0 -0.011753 0 2650 
1567 1 -0.008425 0.00687167 -0.008875 0.000423 0 -0.011753 0 2650 
1584 1 -0.005051 0.00680667 -0.00882 0.000423 0 -0.011753 0 2650 