ITEM: TIMESTEP
4664736
ITEM: NUMBER OF ATOMS
4376
ITEM: BOX BOUNDS ff ff ff
-0.15 0.15
-0.15 0.06
-0.15 0.15
ITEM: ATOMS id type x y z radius vx vy vz density 
3607 1 -0.114457 -0.0657316 0.054029 0.000116 -6.16721 -0.386428 9.98595 2650 
741 1 -0.0875521 -0.062862 0.141464 0.000116 -1.49554 -0.0735532 11.5527 2650 
1056 1 -0.000696236 -0.0476825 -0.06888 0.000116 -4.60475 0.160305 0.0464274 2650 
3602 1 -0.0151381 -0.0468773 -0.0671999 0.000116 -3.60409 -0.177779 0.761338 2650 
634 1 -0.0188761 -0.0601896 -0.0662449 0.000116 -7.50082 -0.254776 2.1326 2650 
3409 1 -0.0454522 -0.0473923 -0.0510426 0.000656 -3.94999 0.35633 3.6254 2650 
3038 1 -0.0476404 -0.0572761 -0.0497533 0.000116 -3.62969 -0.251008 3.49293 2650 
669 1 -0.0612866 -0.0593167 -0.0302467 0.000656 -2.02592 0.19259 4.12004 2650 
287 1 -0.0619664 -0.0524474 -0.0300429 0.000116 -1.57363 0.376769 3.77872 2650 
1903 1 -0.0668451 -0.0485209 -0.0153167 0.000423 -1.10383 0.384491 4.86137 2650 
3331 1 -0.0680628 -0.0597559 0.00838871 0.000423 0.494278 -0.279212 3.86424 2650 
1598 1 -0.0683498 -0.0484013 0.00856318 0.000116 0.626989 0.233725 4.89108 2650 
51 1 -0.0629261 -0.0472908 0.0272595 0.000423 1.93446 0.479721 4.57765 2650 
2790 1 -0.0558416 -0.045127 0.039808 0.000423 2.52629 -0.112436 3.53794 2650 
4035 1 -0.0497799 -0.0467393 0.0476131 0.000116 3.18421 0.0437797 3.3453 2650 
4308 1 -0.0492845 -0.045823 0.0476856 0.000423 3.26899 -0.170489 3.40108 2650 
3519 1 -0.0468302 -0.0463064 0.0497801 0.000656 3.60036 0.0790761 3.41242 2650 
2803 1 -0.0474065 -0.0451934 0.0499761 0.000116 2.80587 0.655831 2.64684 2650 
3945 1 -0.0454878 -0.0549889 0.0518267 4.2e-05 3.62195 -1.05375 3.17129 2650 
2201 1 -0.0324333 -0.0527821 0.0601609 0.000656 4.52315 -0.118984 2.43172 2650 
4288 1 -0.0152148 -0.0535282 0.0668693 0.000423 4.42727 0.194057 1.02685 2650 
3650 1 -0.000630141 -0.036141 -0.0685748 0.000423 -5.71113 0.0360757 0.0657413 2650 
2102 1 -0.00315763 -0.0312793 -0.0682729 0.000656 -5.86294 0.0892938 0.247961 2650 
833 1 -0.00858299 -0.0254178 -0.0683472 0.000116 -4.69691 -0.483832 0.575269 2650 
476 1 -0.000706822 -0.0258464 -0.0685738 0.000423 -4.83211 0.136336 0.0583569 2650 
1075 1 -0.0112572 -0.0237024 -0.0679578 0.000116 -7.91309 -0.515362 1.31418 2650 
1002 1 -0.00492104 -0.0181732 -0.0681673 0.000656 -4.88355 -0.0447982 0.372147 2650 
2672 1 -0.0014977 -0.00446368 -0.0685525 0.000423 -3.38263 -0.00739268 0.104911 2650 
2641 1 -0.00835082 -0.0248762 -0.0678335 0.000656 -5.05078 -0.250993 0.62141 2650 
1387 1 -0.0127473 -0.0244284 -0.0676938 0.000116 -4.50191 0.034808 0.827688 2650 
3540 1 -0.0138382 -0.0235614 -0.067167 0.000423 -4.57759 0.0607915 0.95839 2650 
3426 1 -0.00752151 -0.0193708 -0.067797 0.000423 -3.80014 -1.60768 2.14277 2650 
4095 1 -0.0127923 -0.0188465 -0.067374 0.000423 -5.34443 -0.045073 1.00984 2650 
2386 1 -0.0143329 -0.0138009 -0.0673766 0.000116 -3.45854 -0.170037 0.755495 2650 
235 1 -0.0117327 -0.0120162 -0.0675667 0.000423 -5.10279 -0.0452837 0.866261 2650 
786 1 -0.012917 -0.00682583 -0.0671242 0.000423 -3.14739 -0.601258 2.78406 2650 
1383 1 -0.0166116 -0.0357997 -0.0668497 0.000116 -4.65406 0.347873 1.11757 2650 
1544 1 -0.0154936 -0.0322325 -0.0665642 0.000656 -5.4906 -0.00767136 1.35536 2650 
2670 1 -0.0171579 -0.0273446 -0.0663911 0.000423 -4.86949 0.263584 1.1904 2650 
3652 1 -0.0175753 -0.0208596 -0.0662877 0.000423 -4.9029 0.435279 1.32799 2650 
1587 1 -0.0149668 -0.0187484 -0.0669245 0.000423 -4.27873 -0.00204209 0.959902 2650 
3527 1 -0.0146695 -0.0167163 -0.0669905 0.000423 -4.26768 -0.140765 0.910407 2650 
2083 1 -0.0165672 -0.01652 -0.0669377 4.2e-05 -3.19829 1.08857 0.781386 2650 
3024 1 -0.0169409 -0.0153036 -0.0667684 0.000116 -3.34536 -0.515114 0.877689 2650 
2702 1 -0.0168518 -0.0156912 -0.0667909 0.000116 -4.95802 0.741972 1.24299 2650 
223 1 -0.0146072 -0.000994239 -0.0667662 0.000656 -7.04771 -0.0230641 1.54694 2650 
115 1 -0.0188817 -0.0387463 -0.0656852 0.000656 -5.69598 0.471299 1.62863 2650 
854 1 -0.0208534 -0.0331941 -0.0656202 0.000116 -4.46282 -0.444898 1.4302 2650 
1312 1 -0.0192057 -0.0193788 -0.0662293 4.2e-05 -3.47106 0.0738479 0.988175 2650 
1922 1 -0.017794 -0.0109071 -0.0662297 0.000423 -3.68747 -0.168971 1.00587 2650 
1016 1 -0.022651 -0.0346051 -0.0647219 0.000423 -4.46009 -0.0515899 1.78972 2650 
1721 1 -0.0228825 -0.0210201 -0.0649683 0.000116 -4.16883 0.433244 1.55256 2650 
1647 1 -0.0225412 -0.0167422 -0.0651694 4.2e-05 -3.57775 -0.564739 1.23012 2650 
3134 1 -0.0233468 -0.0158018 -0.0648065 0.000116 -3.43805 -0.0387477 1.24362 2650 
1957 1 -0.0228744 -0.00993446 -0.064975 0.000116 -3.38932 0.198364 1.18217 2650 
4307 1 -0.023908 -0.0320719 -0.0642755 0.000423 -4.97342 -0.306459 1.83946 2650 
3266 1 -0.0253307 -0.0214489 -0.0640572 0.000116 -4.1538 0.340286 1.65139 2650 
2112 1 -0.0247635 -0.0173434 -0.0639502 0.000423 -3.60846 -0.51868 1.40455 2650 
2000 1 -0.0237819 -0.0162194 -0.0643222 0.000423 -3.54704 -0.0414579 1.33687 2650 
1945 1 -0.0246357 -0.00848227 -0.064328 0.000116 -3.07194 -0.0844561 1.1408 2650 
1372 1 -0.0262995 -0.0283663 -0.0633345 0.000423 -4.33387 -0.531401 1.76817 2650 
14 1 -0.0255545 -0.0222204 -0.0636384 0.000423 -4.03227 -0.0604397 1.60774 2650 
3734 1 -0.0258477 -0.00589604 -0.06327 0.000656 -4.30929 -0.131644 1.77682 2650 
378 1 -0.028556 -0.0129534 -0.06235 0.000423 -3.96502 -0.0960291 1.79792 2650 
3079 1 -0.0283054 -0.040488 -0.0622088 0.000656 -5.61064 0.104882 2.53815 2650 
455 1 -0.0289593 -0.028075 -0.0621645 0.000423 -4.40732 0.104747 2.05835 2650 
1912 1 -0.0301167 -0.0179178 -0.0616108 0.000423 -3.93947 -0.0799381 1.90689 2650 
4177 1 -0.0306093 -0.0284304 -0.0613674 0.000423 -3.60083 -0.345856 1.78844 2650 
4116 1 -0.0311768 -0.0048673 -0.0610795 0.000116 -1.11925 -0.127346 4.12124 2650 
2651 1 -0.0319887 -0.0387415 -0.0606599 0.000423 -4.64244 -0.144038 2.46174 2650 
1462 1 -0.0322788 -0.0372813 -0.0605053 0.000423 -5.07329 0.220608 2.71509 2650 
1214 1 -0.0321625 -0.023183 -0.0603045 0.000656 -5.24819 0.194086 2.84145 2650 
146 1 -0.0326104 -0.0141668 -0.0603291 0.000423 -3.56131 -0.377585 1.91909 2650 
4250 1 -0.0325784 -0.0123189 -0.060694 0.000116 -4.24465 0.22605 2.29587 2650 
3904 1 -0.0332713 -0.00478358 -0.0603159 0.000116 -2.9807 -0.230835 1.51603 2650 
1132 1 -0.0346431 -0.031562 -0.0591849 0.000423 -5.10017 0.214183 2.96504 2650 
2806 1 -0.0347863 -0.0266132 -0.0594545 0.000116 -3.65834 0.216573 2.11383 2650 
2123 1 -0.0356454 -0.031687 -0.0585846 0.000423 -5.06682 0.327481 3.0878 2650 
688 1 -0.0356206 -0.0183168 -0.0586011 0.000423 -4.10942 -0.0407359 2.49406 2650 
1630 1 -0.0361925 -0.0100821 -0.058601 0.000116 -2.84417 -0.286563 1.48151 2650 
2634 1 -0.0358007 -0.010166 -0.0589365 4.2e-05 -2.91692 -0.272006 1.73997 2650 
2700 1 -0.0372348 -0.014841 -0.0579532 0.000116 -2.88388 -0.262665 1.89625 2650 
1612 1 -0.0380476 -0.0156494 -0.0574227 0.000116 -5.03015 0.339785 3.32393 2650 
691 1 -0.0393472 -0.0422728 -0.0561666 0.000423 -4.11944 0.123468 2.88324 2650 
3577 1 -0.0399285 -0.0258712 -0.056124 0.000116 -3.92389 0.127673 2.7865 2650 
3482 1 -0.039611 -0.024934 -0.0563548 0.000116 -4.15919 0.109322 2.90802 2650 
1813 1 -0.0410761 -0.016942 -0.0549037 0.000423 -4.09535 0.347287 3.07236 2650 
3440 1 -0.0424531 -0.0378894 -0.0538492 0.000423 -4.84047 0.328548 3.77111 2650 
2224 1 -0.0420838 -0.0194461 -0.0541455 0.000423 -3.76209 -0.140065 2.89103 2650 
2959 1 -0.0430257 -0.00756455 -0.0538604 4.2e-05 -2.45504 -0.154748 2.14491 2650 
955 1 -0.0406749 -0.00532835 -0.0533946 0.000116 -2.11349 -0.398541 2.21041 2650 
4268 1 -0.0450746 -0.0236653 -0.0521868 4.2e-05 -3.81631 0.134989 3.29492 2650 
2690 1 -0.043789 -0.0131187 -0.0527761 0.000423 -2.58253 -0.448 2.08383 2650 
4028 1 -0.0459235 -0.0313834 -0.0513422 0.000116 -3.56072 0.123626 3.16623 2650 
3464 1 -0.0457909 -0.0189233 -0.0514603 0.000116 -2.38232 -0.421396 2.09357 2650 
4142 1 -0.045694 -0.0155676 -0.0515463 0.000116 -3.44252 0.260634 3.06698 2650 
1116 1 -0.0455939 -0.028982 -0.0512258 0.000423 -4.0006 0.0478112 3.55874 2650 
947 1 -0.0465636 -0.0261392 -0.0507627 0.000116 -2.90478 0.337147 2.6467 2650 
3534 1 -0.0465252 -0.0347687 -0.0503817 0.000423 -3.90906 0.243807 3.62837 2650 
2211 1 -0.0474388 -0.0330417 -0.0492016 0.000656 -3.61027 -0.000828313 3.47695 2650 
21 1 -0.0476924 -0.0286173 -0.0492784 0.000423 -3.62852 0.199649 3.51539 2650 
122 1 -0.0471202 -0.0243634 -0.0495062 0.000656 -4.13656 -0.154414 4.01282 2650 
4025 1 -0.0484039 -0.0221549 -0.0490106 0.000116 -4.1127 0.119086 4.04791 2650 
295 1 -0.0486465 -0.0125602 -0.04877 0.000116 -2.37948 -0.250848 2.39358 2650 
710 1 -0.0479941 -0.00574388 -0.0487101 0.000423 -2.77569 0.144309 2.56263 2650 
3156 1 -0.050718 -0.0349142 -0.0466123 0.000116 -4.76888 0.64018 5.20789 2650 
671 1 -0.0510438 -0.0266677 -0.0454503 0.000656 -3.65552 -0.0629093 4.13562 2650 
3443 1 -0.0516487 -0.018467 -0.0451144 0.000423 -2.71208 0.331443 3.08244 2650 
3425 1 -0.0518403 -0.0322026 -0.044895 0.000423 -3.58144 -0.49238 4.1418 2650 
3679 1 -0.0503604 -0.00564358 -0.0441656 0.000116 -1.06023 -0.319272 3.36574 2650 
2091 1 -0.0532483 -0.0291499 -0.0428473 0.000656 -2.30379 -0.753781 2.89424 2650 
2259 1 -0.053807 -0.00574846 -0.042863 0.000116 0.823016 -0.118087 4.37347 2650 
3328 1 -0.0546068 -0.0245794 -0.0414847 0.000423 -2.75488 0.000614866 3.66497 2650 
3933 1 -0.05484 -0.00492702 -0.0416829 0.000116 -2.03951 -0.125836 2.6458 2650 
3574 1 -0.0555829 -0.0231768 -0.0406876 0.000116 -3.11107 -0.00698259 4.20386 2650 
2208 1 -0.0548636 -0.0214736 -0.0407563 0.000656 -3.16942 -0.0711342 4.22094 2650 
4316 1 -0.056205 -0.0444554 -0.0392923 0.000423 -2.70316 -0.507867 3.84493 2650 
3918 1 -0.0565583 -0.0242516 -0.0393116 0.000116 -2.29623 0.363269 3.25689 2650 
3135 1 -0.0569935 -0.00898962 -0.0386687 0.000116 -1.93493 -0.159138 2.79946 2650 
3656 1 -0.0567889 -0.0279147 -0.0384204 0.000423 -2.16902 -0.324643 3.24376 2650 
1818 1 -0.0579858 -0.0378026 -0.0371795 0.000116 -2.56868 -0.0978888 3.93842 2650 
2618 1 -0.0580684 -0.0294107 -0.0370224 0.000116 -2.59409 -0.167688 3.93538 2650 
1670 1 -0.0575979 -0.0260107 -0.0372148 0.000423 -2.64296 -0.0260072 3.88311 2650 
4006 1 -0.058338 -0.0372468 -0.0366129 0.000116 -2.55306 -0.052781 4.0203 2650 
3168 1 -0.0584879 -0.0204347 -0.0354274 0.000116 -0.922077 0.226013 6.10583 2650 
3047 1 -0.0606301 -0.0167665 -0.0326949 0.000116 -1.965 -0.115918 3.62671 2650 
107 1 -0.0613033 -0.0187154 -0.0315761 4.2e-05 -1.61423 -0.0964362 3.14297 2650 
4220 1 -0.061083 -0.0136783 -0.0318405 0.000116 -1.50907 -0.273169 2.86871 2650 
1020 1 -0.0610022 -0.0116239 -0.0313319 0.000423 -2.59749 0.0861702 5.04593 2650 
3547 1 -0.061366 -0.0342529 -0.0306121 0.000423 -1.99103 -0.24933 4.02659 2650 
843 1 -0.0618288 -0.0291033 -0.0303676 0.000116 -1.72619 0.359556 3.55215 2650 
2599 1 -0.0619161 -0.0155426 -0.0301891 0.000116 -2.49652 -0.204993 5.12181 2650 
2920 1 -0.0621189 -0.0314019 -0.0297709 0.000116 -2.73006 0.669931 5.66961 2650 
4342 1 -0.0622136 -0.0142075 -0.0295718 0.000116 -3.01722 0.47201 6.34234 2650 
468 1 -0.0629899 -0.0368896 -0.0271137 0.000423 -2.11305 0.223183 4.88939 2650 
991 1 -0.0627607 -0.0244376 -0.0270587 0.000656 -1.79314 -0.233249 4.11857 2650 
2965 1 -0.0634361 -0.0149833 -0.0270386 4.2e-05 -1.29375 -0.349806 3.06682 2650 
3875 1 -0.0632911 -0.0288557 -0.0264049 0.000423 -1.80548 -0.0867072 4.26463 2650 
939 1 -0.06369 -0.00602243 -0.0262425 0.000116 -1.23425 -0.0964544 3.01929 2650 
4020 1 -0.0635662 -0.000560059 -0.0265394 0.000116 -1.75181 -0.0521436 4.16123 2650 
2862 1 -0.0633226 -0.0372025 -0.0257156 0.000656 -2.02456 0.166605 4.99085 2650 
3399 1 -0.0640854 -0.0172457 -0.0254602 4.2e-05 -3.26585 0.1123 8.2251 2650 
1805 1 -0.0642502 -0.0267232 -0.023978 0.000423 -1.78517 -0.107809 4.7665 2650 
3386 1 -0.0646198 -0.0247168 -0.0238595 0.000116 -1.84328 0.361879 4.96368 2650 
658 1 -0.0645703 -0.0215301 -0.0242042 4.2e-05 -2.47275 0.0216101 6.59571 2650 
2060 1 -0.0652745 -0.0194543 -0.0220044 0.000116 -1.65147 0.0347201 4.88096 2650 
3862 1 -0.065121 -0.0243703 -0.0214992 0.000423 -1.51905 0.179473 4.57833 2650 
2072 1 -0.0647226 -0.0219223 -0.0215452 0.000116 -2.01256 -0.770011 3.39361 2650 
4293 1 -0.0652619 -0.011979 -0.0210622 0.000423 -1.59218 0.103706 5.03592 2650 
4373 1 -0.0116203 -0.00371697 -0.0209027 4.2e-05 -1.63066 -0.080999 -2.73077 2650 
534 1 -0.0659362 -0.0444692 -0.0199348 0.000116 -1.2367 0.553726 4.17333 2650 
3845 1 -0.0655015 -0.040974 -0.0195165 0.000656 -1.86197 -0.0332114 6.00643 2650 
4229 1 -0.0662279 -0.00979461 -0.0178129 0.000116 -0.945098 -0.444829 3.36176 2650 
3089 1 -0.0662711 -0.00650407 -0.017608 0.000423 -1.56106 -0.477131 5.98216 2650 
2822 1 -0.065658 -0.00464398 -0.0174556 0.000116 -1.29633 -0.0939917 2.72463 2650 
2327 1 -0.0665428 -0.0296561 -0.0165846 0.000423 -1.12987 0.257724 4.46799 2650 
3337 1 -0.00995872 -0.00492527 -0.0166687 0.000423 -1.54878 -0.14649 -2.59577 2650 
606 1 -0.000183 0.00360801 -0.016592 0.000116 0 -0.011753 0 2650 
302 1 -0.000952013 0.00567797 -0.0167052 0.000116 0.0144537 0.0275624 0.0199867 2650 
188 1 -0.000538799 0.00623978 -0.016655 0.000116 0.0165449 0.115943 -0.0162865 2650 
2713 1 -0.000763 0.010579 -0.016767 0.000116 0 -0.011753 0 2650 
3352 1 -0.00101807 0.0537976 -0.0167372 0.000116 -1.10494 -0.0179722 -0.0443803 2650 
1687 1 -0.0666684 -0.028549 -0.0160732 0.000423 -1.19042 -0.110381 4.95256 2650 
736 1 -0.003429 0.00153301 -0.016474 0.000116 0 -0.011753 0 2650 
150 1 -0.00240588 0.000849833 -0.0162711 0.000423 -0.00913371 0.00501626 0.00203877 2650 
676 1 -0.00202646 0.00203528 -0.0161549 0.000423 -0.0224601 -0.00506437 -0.0314712 2650 
1679 1 -0.00362776 0.00287742 -0.0158575 0.000423 -0.000267589 -0.00703629 -0.00433961 2650 
2013 1 -0.0028327 0.003104 -0.0161774 0.000423 0.00298908 -0.00809762 0.00112683 2650 
2301 1 -0.004222 0.00538101 -0.016305 4.2e-05 0 -0.011753 0 2650 
3121 1 -0.00433204 0.00501571 -0.0158221 0.000423 0.0295457 0.00139416 -0.0105356 2650 
1698 1 -0.000561559 0.00527307 -0.0165018 0.000423 0.0411176 0.0348153 -1.85855e-05 2650 
1219 1 -0.00116562 0.00614298 -0.016078 0.000656 0.0133062 0.0257769 0.010504 2650 
3616 1 -0.000323135 0.00623149 -0.016119 4.2e-05 0.03094 0.00266257 -0.00226281 2650 
3546 1 -0.00047884 0.00709146 -0.0161924 0.000423 0.025704 0.0149609 0.00360255 2650 
3934 1 -0.001977 0.00837001 -0.016218 0.000116 0 -0.011753 0 2650 
913 1 -0.000435646 0.0207326 -0.0160209 0.000423 -0.026838 0.11283 -0.0868357 2650 
2337 1 -0.0669249 -0.0211602 -0.0149677 0.000423 -1.08786 -0.16428 4.85756 2650 
204 1 -0.0670987 -0.0185634 -0.0155758 0.000116 -0.835272 -0.0972835 3.66364 2650 
2875 1 -0.00398763 -0.00317476 -0.0157582 0.000423 -0.0431898 -0.0299994 0.0160058 2650 
1991 1 -0.00445859 0.000605709 -0.0155695 0.000656 -0.0197706 -0.00214867 0.00868857 2650 
3239 1 -0.00258419 0.0014506 -0.0153745 0.000116 -0.00859694 0.0134975 -0.018679 2650 
3589 1 -0.00696512 0.00309965 -0.0152136 0.000116 0.14668 0.065606 -0.0829889 2650 
2399 1 -0.002418 0.00382201 -0.015541 0.000116 0 -0.011753 0 2650 
2313 1 -0.00505334 0.00444837 -0.0152473 0.000656 -0.00466868 0.0472424 0.00111728 2650 
4296 1 -0.00201123 0.00502959 -0.0151138 0.000423 -0.0431702 0.0421068 0.0473826 2650 
1620 1 -0.00515394 0.00609026 -0.0154756 0.000116 0.0529387 0.0514306 -0.00503745 2650 
978 1 -0.005372 0.00706801 -0.015286 0.000116 0 -0.011753 0 2650 
2969 1 -0.00122859 0.00704094 -0.0150898 0.000656 -0.00206042 0.0293208 -0.00182506 2650 
508 1 -0.00709112 0.00781886 -0.0152318 0.000116 -0.0751391 0.010407 0.0285118 2650 
192 1 -0.000173541 0.00809708 -0.0156268 0.000116 0.0003015 -0.0085404 -0.100133 2650 
3177 1 -0.001068 0.00942601 -0.015412 4.2e-05 0 -0.011753 0 2650 
3830 1 -0.006879 0.00992201 -0.015411 4.2e-05 0 -0.011753 0 2650 
86 1 -0.002064 0.00962601 -0.015055 0.000116 0 -0.011753 0 2650 
371 1 -0.000486068 0.0102146 -0.0150315 0.000423 0.000724313 -0.00601752 -0.0061741 2650 
938 1 -0.000869 0.010832 -0.015416 0.000116 0 -0.011753 0 2650 
3216 1 -0.00439931 0.0219273 -0.0157248 0.000423 -0.00544148 0.107266 0.0543995 2650 
2467 1 -0.00233187 0.0268351 -0.0150931 0.000423 0.0301791 0.103437 0.0421276 2650 
1357 1 -0.00532681 0.0396045 -0.0155908 0.000423 0.0624779 0.287902 -0.0352894 2650 
3743 1 -0.0670087 -0.029236 -0.0145869 0.000423 -1.01955 -0.195694 4.5923 2650 
817 1 -0.0670075 -0.020551 -0.0141399 0.000423 -1.11334 -0.0959029 5.07038 2650 
4212 1 -0.066993 -0.017735 -0.0146465 0.000423 -1.01794 0.193208 4.68472 2650 
3502 1 -0.001236 -0.00326899 -0.014816 4.2e-05 0 -0.011753 0 2650 
1053 1 -0.007469 -1.99891e-05 -0.014946 0.000116 0 -0.011753 0 2650 
2827 1 -0.00429893 -0.000310715 -0.0143202 0.000116 -0.0201753 -0.0226203 0.0017234 2650 
3733 1 -0.00557897 0.000513232 -0.0144466 0.000656 -0.024164 0.0138988 0.0212093 2650 
2332 1 -0.00386146 0.000444723 -0.0145576 0.000423 -0.0114447 -0.00779769 0.00753018 2650 
2817 1 -0.00228014 0.000689729 -0.0146153 0.000116 0.0433674 0.00938963 -0.0130151 2650 
3441 1 -2.78158e-06 0.000645822 -0.0143032 0.000423 0.0511961 0.0224295 0.00157087 2650 
222 1 -0.00179649 0.00147736 -0.0147529 0.000656 -0.00732193 -0.0406633 -0.014702 2650 
2922 1 -0.00549825 0.00206733 -0.0145588 0.000116 -0.0492521 -0.0166623 -0.0574868 2650 
3637 1 -0.00343071 0.00168451 -0.01467 0.000423 -0.00927015 0.0142513 -0.0137177 2650 
220 1 -0.003649 0.00288501 -0.014897 4.2e-05 0 -0.011753 0 2650 
234 1 -0.00240499 0.00443868 -0.0146314 0.000423 0.0351287 -0.0167305 0.0264562 2650 
2283 1 -0.000943149 0.00426942 -0.0147031 0.000116 -0.0318858 -0.01081 -0.0228231 2650 
1618 1 -0.00742162 0.00530515 -0.0149922 0.000116 -0.0316941 0.0615295 0.00665882 2650 
3365 1 -0.002315 0.00624801 -0.014552 0.000116 0 -0.011753 0 2650 
1584 1 -0.00113861 0.00610355 -0.0144321 0.000423 -0.00963006 0.0395817 0.04039 2650 
2596 1 -0.00786926 0.0066341 -0.0142161 0.000116 -0.0442582 -0.0431064 0.0384975 2650 
2438 1 -0.00575399 0.00677658 -0.0148055 0.000423 -0.00278545 -0.000108858 -0.00379545 2650 
4190 1 -0.00796679 0.00856286 -0.0144429 0.000423 -0.009489 7.8582e-05 0.00632979 2650 
3515 1 -0.00684587 0.00818379 -0.0143532 0.000656 -0.00618896 -0.0090925 0.00826116 2650 
1617 1 -0.00470272 0.00937951 -0.0145492 0.000116 0.0304875 0.00968505 -0.0492471 2650 
1986 1 -0.00322304 0.00922872 -0.0142531 0.000656 0.00762539 0.0149956 0.0116892 2650 
1228 1 -0.00138681 0.00969519 -0.0149889 0.000423 -0.00123313 -0.0118667 -0.000623591 2650 
3669 1 -0.000345155 0.0109505 -0.0145061 0.000423 0.00220454 -0.00743356 -0.00383523 2650 
4257 1 -0.00862799 0.0116213 -0.0142144 0.000116 0.0101268 -0.0416798 0.0036163 2650 
568 1 -0.00457087 0.0155321 -0.0145596 0.000423 0.0183062 0.0263973 -0.10881 2650 
3932 1 -0.00577849 0.0191124 -0.0145814 0.000116 0.03152 0.0411719 0.0597923 2650 
821 1 -0.0672291 -0.0250695 -0.0135316 0.000423 -0.952389 -0.0991605 4.71227 2650 
93 1 -0.00916264 -0.00314287 -0.0138688 0.000116 -0.0550211 -0.0288184 0.0422644 2650 
3196 1 -0.00658136 -0.00291055 -0.0141929 0.000423 -0.0151487 -0.0348726 0.0137497 2650 
330 1 -0.00546307 -0.00255064 -0.0136684 4.2e-05 -0.0696064 -0.0147686 0.0345761 2650 
623 1 -0.00675145 0.000834608 -0.0140748 0.000116 -0.00477071 -0.00938024 -0.0420845 2650 
450 1 -0.00681876 0.00378499 -0.0134798 0.000656 0.0113486 0.0469175 0.00740751 2650 
3587 1 -0.0058711 0.0041524 -0.0139402 0.000116 0.00461134 0.0023037 -0.00278329 2650 
3322 1 -0.00407254 0.00415431 -0.0138227 0.000423 0.0155165 0.0110838 0.0251988 2650 
4165 1 -0.00517495 0.00539547 -0.0139307 0.000656 0.00218064 -0.0455565 -0.0189851 2650 
104 1 -0.00273383 0.00533309 -0.0135977 4.2e-05 -0.00674979 0.0150481 0.0116551 2650 
4310 1 -0.000566338 0.00520858 -0.0139322 0.000423 0.011252 0.0218425 0.101284 2650 
3950 1 -0.00583102 0.00696932 -0.0135552 0.000656 -0.0388041 -0.0152844 -0.0394137 2650 
1519 1 -0.00139223 0.00694893 -0.0138935 0.000116 -0.0494896 0.0341374 0.0501115 2650 
2322 1 -0.00788663 0.00762781 -0.0137311 0.000656 -0.0108707 -0.010103 0.00337555 2650 
1288 1 -0.002467 0.00755101 -0.014044 0.000116 0 -0.011753 0 2650 
2222 1 -0.000225495 0.00824247 -0.0141231 0.000423 -0.00549102 -0.00568171 -0.00117535 2650 
581 1 -0.00558326 0.00907136 -0.0141757 0.000423 -0.0012195 -0.0118051 -0.000692671 2650 
2483 1 -0.0091531 0.0101069 -0.0135066 0.000116 0.00258646 -0.0218162 0.0129531 2650 
963 1 -0.00444838 0.00982506 -0.0135553 0.000116 -0.0353923 -0.062899 -0.0407773 2650 
1476 1 -0.006941 0.010351 -0.013435 0.000423 0 -0.011753 0 2650 
1409 1 -0.00044 0.011331 -0.013868 0.000116 0 -0.011753 0 2650 
3644 1 -0.000759259 0.0121206 -0.0135898 0.000423 -0.00432743 0.00711996 -0.0325914 2650 
3632 1 -0.00884784 0.0127782 -0.0139221 0.000423 -0.0221559 0.000444483 0.0133776 2650 
142 1 -0.00125453 0.02157 -0.0140899 0.000423 -0.0926872 0.0526713 -0.0970482 2650 
1254 1 -0.000812708 0.0225633 -0.0134738 0.000423 0.138718 -0.0210939 0.0394833 2650 
2271 1 -0.0676388 -0.0389848 -0.013037 0.000116 -0.842872 -0.157677 4.34133 2650 
3960 1 -0.00850353 -0.00335859 -0.0129007 0.000423 -0.296832 -0.042754 -0.481214 2650 
800 1 -0.00649569 -0.00254486 -0.0129927 0.000423 -0.230051 0.0443693 -0.205138 2650 
4097 1 -0.00875063 -0.00235652 -0.0133382 0.000423 0.0242376 0.00709813 -0.00869569 2650 
2413 1 -0.006779 -0.00203962 -0.012698 4.2e-05 -0.0826713 -0.0311639 0.0536157 2650 
2645 1 -0.00493353 -0.000795885 -0.0130792 0.000656 -0.0339684 -0.013594 0.0452752 2650 
2127 1 -0.0100449 -0.00043947 -0.0127483 0.000423 -0.129436 0.0152094 0.099489 2650 
509 1 -0.00715863 -0.000738139 -0.0129135 0.000116 -0.00521486 0.00944493 -0.0325939 2650 
3551 1 -0.00574578 -6.27828e-05 -0.0130731 0.000423 -0.0216668 0.0127937 -0.00713462 2650 
4126 1 -0.00377333 -0.000187556 -0.013417 0.000116 -0.0261531 0.0084042 0.00402279 2650 
388 1 -0.00792598 0.000630899 -0.0127602 0.000116 0.0212466 0.0335067 0.0250458 2650 
3201 1 -0.00608689 0.000682352 -0.012635 0.000423 -0.00608722 0.0216696 0.0089772 2650 
541 1 -0.00583959 0.000439908 -0.0129879 4.2e-05 -0.0127705 -0.000255125 0.00539942 2650 
2525 1 -0.004063 0.00177801 -0.013231 4.2e-05 0 -0.011753 0 2650 
2619 1 -0.005851 0.00259401 -0.012854 0.000116 0 -0.011753 0 2650 
3880 1 -0.010277 0.00351001 -0.012913 0.000423 0 -0.011753 0 2650 
2609 1 -0.00886 0.00331801 -0.013248 0.000116 0 -0.011753 0 2650 
3645 1 -0.00461756 0.00346325 -0.0131259 0.000423 -0.0366325 -0.00935646 0.0235959 2650 
2918 1 -0.00757 0.00466901 -0.012948 0.000116 0 -0.011753 0 2650 
3917 1 -0.003984 0.00407901 -0.012703 0.000116 0 -0.011753 0 2650 
2059 1 -0.003583 0.00428801 -0.012756 0.000116 0 -0.011753 0 2650 
2512 1 -0.0097776 0.00500042 -0.0127682 0.000116 0.002514 -0.0160812 -0.0313025 2650 
1171 1 -0.00812302 0.00485639 -0.0127628 0.000116 -0.0146011 -0.0168948 -0.0399555 2650 
2219 1 -0.00500888 0.00487158 -0.0129427 0.000423 0.0573797 0.046564 0.0166916 2650 
3380 1 -0.00218985 0.00479611 -0.0132028 0.000116 -0.00133046 -0.0120531 0.0302183 2650 
4078 1 -0.0084022 0.00659536 -0.0127552 0.000423 -0.0196946 -0.00953845 0.00130892 2650 
1427 1 -0.002948 0.00661901 -0.013376 4.2e-05 0 -0.011753 0 2650 
3259 1 -0.00841451 0.00784746 -0.0132047 0.000116 -0.0089878 -0.00810535 0.00538998 2650 
2913 1 -0.00665183 0.00722402 -0.0127724 0.000116 -0.028239 -0.0119827 -0.0130286 2650 
1795 1 -0.008775 0.00861801 -0.012959 0.000423 0 -0.011753 0 2650 
1769 1 -0.0058526 0.00868506 -0.0132035 0.000656 -0.0178444 -0.00217523 -0.00643797 2650 
205 1 -0.000744 0.00933501 -0.01334 0.000116 0 -0.011753 0 2650 
233 1 -0.00479207 0.010182 -0.0133053 0.000423 0.000342891 -0.00976437 -0.0328705 2650 
3007 1 -0.000777163 0.0116015 -0.0128444 0.000423 -0.0135196 -0.00505473 -0.0280609 2650 
1775 1 -0.00822568 0.0120697 -0.0130325 0.000423 -7.29146e-05 -0.011186 -0.000346901 2650 
675 1 -0.00469296 0.0191344 -0.0130527 0.000423 -0.0171714 0.0807922 0.0289201 2650 
1979 1 -0.00609338 0.0205695 -0.0133185 4.2e-05 -0.060479 0.115177 0.0648972 2650 
3313 1 -0.0675527 -0.0255455 -0.0118079 0.000423 -0.830297 -0.0817822 5.02242 2650 
4323 1 -0.0675154 -0.0224492 -0.012015 0.000423 -0.876839 -0.00695242 4.88059 2650 
2468 1 -0.003167 -0.00182399 -0.012131 0.000423 0 -0.011753 0 2650 
545 1 -0.002328 -0.00219699 -0.012432 4.2e-05 0 -0.011753 0 2650 
1763 1 -0.001143 -0.00153599 -0.012442 0.000656 0 -0.011753 0 2650 
3191 1 -0.00657785 -0.000382583 -0.0124607 0.000656 -0.0168446 0.00288294 -0.00297772 2650 
1468 1 -0.0037647 -0.000565684 -0.0124384 0.000423 -0.0197001 -0.0470204 -0.0326717 2650 
3200 1 -0.0076134 0.000537425 -0.0119247 0.000423 -0.0293082 -0.00953204 0.0229812 2650 
1422 1 -0.003881 0.000310011 -0.012349 4.2e-05 0 -0.011753 0 2650 
3778 1 -0.00533818 0.00081418 -0.0121952 0.000423 -0.0441284 0.0265152 0.0540744 2650 
1799 1 -0.00323286 0.00112048 -0.0120583 0.000423 7.10678e-05 -0.0118308 4.63239e-05 2650 
3956 1 -0.00901881 0.00195677 -0.0122966 0.000656 -0.000640959 -0.0104529 -0.000368355 2650 
3389 1 -0.010415 0.00257601 -0.012026 0.000116 0 -0.011753 0 2650 
1595 1 -0.00771741 0.00284813 -0.0119707 0.000423 -0.0081111 0.00198047 0.0261702 2650 
1125 1 -0.00464763 0.00292499 -0.0124142 0.000423 -0.0447254 0.0166037 0.0212545 2650 
2957 1 -0.00230618 0.00359305 -0.0122539 4.2e-05 0.0205169 0.0248349 -0.000218849 2650 
3826 1 -0.009208 0.00447101 -0.012552 0.000116 0 -0.011753 0 2650 
2912 1 -0.00625137 0.00444288 -0.0119357 0.000116 0.0152844 0.00719243 -0.0503855 2650 
2194 1 -0.00244197 0.00462053 -0.0125436 4.2e-05 0.00491046 0.00111596 0.00228026 2650 
708 1 -0.00268947 0.00469441 -0.0119509 0.000423 -0.0031746 -0.00580761 -0.0104884 2650 
411 1 -0.0102101 0.00475171 -0.0120877 0.000116 -0.00787832 -0.00657823 -8.20909e-05 2650 
3316 1 -0.008979 0.00522401 -0.012376 0.000423 0 -0.011753 0 2650 
1261 1 -0.00745422 0.0051313 -0.0124061 0.000423 0.000611181 -0.0114942 -0.000246774 2650 
3362 1 -0.002672 0.00523701 -0.012199 0.000116 0 -0.011753 0 2650 
3446 1 -0.002592 0.00623101 -0.012627 0.000423 0 -0.011753 0 2650 
3030 1 -0.001189 0.00673401 -0.012596 0.000116 0 -0.011753 0 2650 
1237 1 -0.0101758 0.00765415 -0.0123747 0.000423 -0.00425229 0.0303754 -0.042563 2650 
4318 1 -0.00844346 0.00788864 -0.0124139 0.000423 -0.00589465 -0.00768269 0.00318441 2650 
2547 1 -0.0112093 0.00794329 -0.0120287 0.000423 -0.015549 0.0318736 0.0269085 2650 
191 1 -0.0114729 0.00839613 -0.012161 0.000116 -0.0068407 0.0371391 0.023513 2650 
3847 1 -0.00973205 0.0086642 -0.0124038 0.000656 6.67707e-05 -0.0116743 2.1441e-05 2650 
1495 1 -0.004483 0.00820201 -0.012591 0.000116 0 -0.011753 0 2650 
1250 1 -0.00749354 0.00933535 -0.0125714 0.000423 -0.0109693 -0.0170514 -0.0143142 2650 
3173 1 -0.004958 0.00886301 -0.012321 4.2e-05 0 -0.011753 0 2650 
3684 1 -0.00443106 0.00874865 -0.0121822 0.000116 0.00413104 -0.0230128 -0.00941473 2650 
2630 1 -0.001036 0.00907101 -0.012074 4.2e-05 0 -0.011753 0 2650 
4002 1 -0.000443 0.00889501 -0.01223 0.000116 0 -0.011753 0 2650 
4179 1 -0.00692101 0.00952247 -0.0119165 0.000423 -0.00767678 -0.0221048 -0.00852388 2650 
949 1 -0.00593507 0.0100852 -0.0125608 0.000116 -0.0176518 0.0277962 -0.00593252 2650 
1827 1 -0.00470629 0.00989525 -0.0126119 0.000116 -0.0556457 -0.0263815 -0.0392498 2650 
959 1 -0.00523005 0.0107057 -0.0119663 0.000116 -0.0723779 0.0623805 -0.0339909 2650 
3798 1 -0.00240126 0.0109154 -0.0123165 0.000116 -0.0483102 0.213285 0.0286816 2650 
1423 1 -0.00145 0.010551 -0.012526 4.2e-05 0 -0.011753 0 2650 
3106 1 -0.00614459 0.0111777 -0.0118578 0.000423 -0.042507 0.0242048 -0.0146805 2650 
2205 1 -0.00505662 0.0132736 -0.0119236 0.000656 -0.00206311 0.000112593 -0.00429342 2650 
1143 1 -0.00102222 0.0141457 -0.0123449 0.000423 0.0070315 0.0110531 -0.00616027 2650 
478 1 -0.00647667 0.0144954 -0.0122569 0.000423 -0.0255767 0.012458 -0.051203 2650 
3455 1 -0.00220825 0.0166809 -0.0120563 0.000423 0.0108365 0.0310717 0.0944532 2650 
2109 1 -0.00518479 0.0208292 -0.0124015 0.000423 -0.0277695 0.107912 0.0279852 2650 
819 1 -0.00376879 0.0361091 -0.0122167 0.000423 0.076373 0.150736 0.0329282 2650 
152 1 -0.06761 -0.0400979 -0.0114807 0.000423 -0.849194 -0.139911 4.74869 2650 
4187 1 -0.0676395 -0.0370771 -0.0112924 0.000423 -0.855693 -0.106189 4.76848 2650 
2053 1 -0.0679425 -0.0327817 -0.01132 0.000116 -0.934961 0.400729 4.85433 2650 
1955 1 -0.0679217 -0.0282474 -0.0114637 0.000116 -0.942393 -0.110191 4.75182 2650 
3549 1 -0.0676848 -0.0119135 -0.0110305 0.000423 -0.751131 -0.0603501 4.4591 2650 
1336 1 -0.042553 -0.0053198 -0.0114366 0.000423 -6.64288 -0.167633 -1.77922 2650 
518 1 -0.00995556 -0.00395599 -0.0117552 0.000116 -1.24318 -0.199259 -1.36618 2650 
1393 1 -0.0122557 -0.00279667 -0.011297 0.000116 -0.0365642 -0.00979486 0.0367338 2650 
3505 1 -0.006952 -0.00252799 -0.011235 4.2e-05 0 -0.011753 0 2650 
1022 1 -0.002093 -0.00265799 -0.011454 0.000423 0 -0.011753 0 2650 
2819 1 -0.00819312 -0.00195299 -0.0110616 0.000116 -0.0706478 -0.0400064 0.0959108 2650 
1808 1 -0.00807123 -0.00145158 -0.0116837 0.000423 -0.0860968 -0.00568456 0.0777001 2650 
440 1 -0.00061 -0.00122599 -0.011485 4.2e-05 0 -0.011753 0 2650 
3303 1 -0.0116801 0.000529941 -0.0112284 0.000656 -0.0383267 0.0235417 0.0324685 2650 
2939 1 -0.00928082 0.000772419 -0.0117417 0.000116 -0.00341769 -0.0275913 0.0148239 2650 
2579 1 -0.0087435 0.0013147 -0.0110823 0.000423 -0.000311164 -0.0069809 0.00202215 2650 
3643 1 -0.00799936 0.000881473 -0.0111631 0.000423 -0.0428895 -0.000296778 0.0213914 2650 
248 1 -0.00690472 0.00133873 -0.0116836 0.000423 -0.0134856 -0.00351132 0.050645 2650 
4215 1 -0.0114125 0.00186489 -0.0111388 0.000423 -0.0128892 0.0410474 0.0203539 2650 
3894 1 -0.005583 0.00194501 -0.011098 0.000116 0 -0.011753 0 2650 
3437 1 -0.00104724 0.00159587 -0.0115732 0.000423 -0.076692 0.069646 0.103357 2650 
2279 1 -0.0116253 0.00253926 -0.0113082 0.000116 -0.0158908 0.0502304 0.00803902 2650 
1063 1 -0.009531 0.00250001 -0.011683 0.000116 0 -0.011753 0 2650 
1192 1 -0.00457522 0.00303873 -0.0111806 0.000116 -0.0160738 0.0171838 -0.0228619 2650 