ITEM: TIMESTEP
8325258
ITEM: NUMBER OF ATOMS
4352
ITEM: BOX BOUNDS ff ff ff
-0.15 0.15
-0.15 0.06
-0.15 0.15
ITEM: ATOMS id type x y z radius vx vy vz density 
3266 1 -0.0964519 -0.0628338 0.025633 0.000116 -4.90109 -0.0428213 7.96896 2650 
3391 1 -0.00524673 -0.0575799 -0.0687516 4.2e-05 -6.01138 0.161153 0.412917 2650 
3570 1 -0.00739968 -0.0545256 -0.0684703 0.000116 -4.37303 -1.34338 0.665294 2650 
4288 1 -0.00910237 -0.0495138 -0.067971 0.000423 -6.64732 -0.00850239 0.860035 2650 
844 1 -0.00889346 -0.0455019 -0.0683066 0.000116 -6.23893 -0.553589 0.825013 2650 
2819 1 -0.0296834 -0.0493457 -0.0621301 0.000116 -6.12442 -0.83937 2.97193 2650 
4133 1 -0.0302333 -0.0489375 -0.0618704 0.000116 -6.25071 0.260626 3.15061 2650 
1316 1 -0.0333881 -0.0514055 -0.0603359 4.2e-05 -5.00503 0.23872 2.74937 2650 
3519 1 -0.0465277 -0.0453258 -0.0500641 0.000656 -5.45912 0.0264411 5.06227 2650 
2775 1 -0.049087 -0.0538898 -0.047889 0.000423 -4.02903 0.827221 4.11232 2650 
2833 1 -0.0521051 -0.0499627 -0.0449901 0.000116 -4.19667 0.323534 4.80102 2650 
2201 1 -0.0529161 -0.0489545 -0.0432053 0.000656 -4.53076 -0.0961865 5.66006 2650 
482 1 -0.0615451 -0.0567924 -0.030251 0.000423 -2.87943 0.0146843 5.80766 2650 
739 1 -0.065585 -0.0558936 -0.0210291 0.000116 -1.87091 0.110009 5.79777 2650 
2857 1 -0.0665969 -0.0460369 -0.0153633 0.000656 -1.42936 -0.0489146 6.12762 2650 
3957 1 -0.0678028 -0.0535265 -0.00860509 0.000656 -0.923974 -0.03534 7.14913 2650 
379 1 -0.0684898 -0.0461604 0.00347472 0.000423 0.317109 -0.348287 6.14815 2650 
2314 1 -0.0437953 -0.0460538 0.0524706 0.000656 5.73641 -0.249515 4.77569 2650 
1424 1 -0.0369175 -0.0519618 0.058241 4.2e-05 4.21839 -1.21172 2.86555 2650 
394 1 -0.0122633 -0.045949 0.0677763 0.000116 4.27932 0.018291 0.72028 2650 
3753 1 -0.00341763 -0.0544601 0.0684932 0.000423 5.18325 0.14849 0.220803 2650 
1175 1 -0.0088417 -0.0487653 0.068307 0.000116 5.27557 0.240178 0.671989 2650 
1135 1 -0.00476027 -0.0485176 0.0684124 0.000423 6.5797 0.130869 0.46314 2650 
3349 1 -0.00433347 -0.0435212 -0.0687469 0.000116 -5.37213 0.407014 0.391472 2650 
3040 1 -0.00272182 -0.0286049 -0.0688185 0.000116 -5.9837 -0.538236 0.264967 2650 
3181 1 -0.00530512 -0.0254639 -0.0687451 4.2e-05 -6.47192 0.0802933 0.456025 2650 
1419 1 -0.000839101 -0.0184543 -0.0688787 0.000116 -4.15431 -0.933544 0.0807752 2650 
2147 1 -0.00120987 -0.0150463 -0.0688734 0.000116 -6.43728 0.499544 0.112207 2650 
4128 1 -0.00458039 -0.0146552 -0.0687315 0.000116 -5.88974 -0.704156 0.416351 2650 
213 1 -0.00206704 -0.00695689 -0.068927 4.2e-05 -5.65449 -0.0174496 0.169849 2650 
1055 1 -0.000750688 -0.00601002 -0.0688801 0.000116 -3.17308 -0.162973 0.0303213 2650 
3378 1 -0.00283631 -0.000834663 -0.0688254 0.000116 -6.84802 -0.0931564 0.278272 2650 
753 1 -0.00607 -0.031826 -0.0686029 0.000116 -7.17542 0.610774 0.60154 2650 
2251 1 -0.00226407 -0.0312296 -0.0685386 0.000423 -5.63165 0.0921064 0.256629 2650 
2010 1 -0.003134 -0.0297849 -0.068501 0.000423 -6.34834 -0.458701 0.256228 2650 
579 1 -0.00317773 -0.0286849 -0.068496 0.000423 -6.2184 -0.275062 0.334027 2650 
4132 1 -0.00555098 -0.0278076 -0.0686279 0.000116 -5.80329 0.217055 0.429762 2650 
4297 1 -0.00253556 -0.0281325 -0.0685217 0.000423 -6.51418 0.11429 0.249559 2650 
4147 1 -0.0111794 -0.0276158 -0.0679707 0.000116 -6.59232 0.411343 1.09825 2650 
3522 1 -0.00392605 -0.0253236 -0.068464 0.000423 -6.85815 0.0475527 0.465374 2650 
4056 1 -0.00472612 -0.023522 -0.068176 0.000656 -6.98472 -0.0808725 0.479776 2650 
4286 1 -0.00756586 -0.0220422 -0.0681525 0.000423 -6.12507 -0.244882 0.705449 2650 
353 1 -0.00162795 -0.0220677 -0.0685582 0.000423 -7.45582 -0.115519 0.185411 2650 
588 1 -0.00333138 -0.0212628 -0.0684966 0.000423 -6.38117 0.17883 0.319172 2650 
3196 1 -0.00394344 -0.0197592 -0.0684648 0.000423 -5.63012 0.138929 0.327886 2650 
13 1 -0.00291645 -0.0183618 -0.0685161 0.000423 -5.20205 0.362374 0.204069 2650 
3863 1 -0.00895601 -0.0181378 -0.0679906 0.000423 -6.22009 0.129124 0.81243 2650 
1076 1 -0.00934689 -0.00669518 -0.0682466 0.000116 -3.21386 -0.152207 0.447328 2650 
631 1 -0.00894173 -0.00701655 -0.068301 0.000116 -3.23952 -0.180335 0.454934 2650 
2404 1 -0.00770566 -0.00696776 -0.0684517 0.000116 -4.88711 -0.415475 0.525378 2650 
83 1 -0.0120723 -0.0421312 -0.0678177 0.000116 -4.731 0.210969 0.855337 2650 
3192 1 -0.0129464 -0.040633 -0.0671082 0.000656 -5.49199 -0.63872 1.07145 2650 
3516 1 -0.00817786 -0.0345908 -0.0678553 0.000656 -7.13495 -0.198531 0.838265 2650 
838 1 -0.013946 -0.0336388 -0.0674574 0.000116 -5.39352 -0.44168 1.13605 2650 
3329 1 -0.0103862 -0.031976 -0.0677864 0.000423 -6.19936 -0.105311 0.983439 2650 
658 1 -0.0155959 -0.0290002 -0.0671716 4.2e-05 -6.30282 -0.0763515 1.46849 2650 
3330 1 -0.0104397 -0.0284978 -0.0677786 0.000423 -6.56819 0.259488 1.01671 2650 
2028 1 -0.0103146 -0.0260902 -0.0677973 0.000423 -6.16265 -0.0337197 0.947145 2650 
3741 1 -0.0105587 -0.0250754 -0.0677593 0.000423 -6.75773 0.0491291 1.05216 2650 
3204 1 -0.0134749 -0.023527 -0.0672411 0.000423 -6.70081 0.11845 1.3337 2650 
1952 1 -0.00169056 -0.0209461 -0.0674182 0.000116 -7.26347 -0.352151 -1.36543 2650 
3248 1 -0.0148116 -0.0138693 -0.0672725 0.000116 -4.5891 0.00241648 1.00726 2650 
670 1 -0.012384 -0.0119109 -0.0672141 0.000656 -5.8996 -0.0331977 1.12351 2650 
1956 1 -0.0142594 -0.00405299 -0.0673921 0.000116 -5.09511 -0.105835 1.07123 2650 
1960 1 -0.0173085 -0.0227732 -0.0666737 0.000116 -6.37725 0.546634 1.65236 2650 
419 1 -0.0181014 -0.0153976 -0.0664634 0.000116 -3.43717 -0.180138 0.935049 2650 
2634 1 -0.0159146 -0.0144274 -0.0670964 4.2e-05 -3.64372 -0.0642119 0.858393 2650 
1990 1 -0.0186113 -0.0273252 -0.0657638 0.000656 -6.85103 0.0343818 1.92629 2650 
2476 1 -0.0191126 -0.00935663 -0.0661802 0.000116 -5.38101 0.080586 1.54718 2650 
1335 1 -0.0183768 -0.00939525 -0.0660712 0.000423 -5.31778 0.000363825 1.46535 2650 
3585 1 -0.0199371 -0.00023209 -0.0659356 0.000116 -5.37608 -0.057463 1.63987 2650 
2118 1 -0.0211368 -0.029992 -0.0652397 0.000423 -5.865 -0.377192 1.9466 2650 
1323 1 -0.0203412 -0.027247 -0.0652495 0.000656 -5.7798 -0.187675 1.80149 2650 
3671 1 -0.0224078 -0.0163148 -0.0648137 0.000423 -5.61812 -0.0614859 1.90816 2650 
3539 1 -0.0208644 -0.0094407 -0.0653272 0.000423 -5.68057 0.13188 1.8163 2650 
3096 1 -0.0224547 -0.00802496 -0.0647989 0.000423 -3.61997 -0.172135 1.19595 2650 
596 1 -0.0238274 -0.014581 -0.0643044 0.000423 -4.14629 -0.283079 1.48398 2650 
3219 1 -0.0258641 -0.0355837 -0.0634998 0.000423 -3.50957 -1.1416 1.28288 2650 
2367 1 -0.025687 -0.0301905 -0.0639082 0.000116 -5.23534 0.406467 2.12069 2650 
3959 1 -0.0255618 -0.0269053 -0.0636288 0.000423 -5.44506 0.115517 2.10872 2650 
2593 1 -0.0268322 -0.0112804 -0.0634359 0.000116 -6.1035 0.509107 2.57189 2650 
2310 1 -0.0281938 -0.0239297 -0.0629218 4.2e-05 -8.41651 -0.734091 3.78189 2650 
2371 1 -0.0287178 -0.0166753 -0.0626063 0.000116 -5.13912 0.0887082 2.43744 2650 
432 1 -0.029331 -0.011473 -0.0623891 4.2e-05 -4.23849 -0.155151 2.03483 2650 
1886 1 -0.0276202 -0.0108654 -0.0627653 0.000423 -5.07104 0.237431 2.33233 2650 
1445 1 -0.0287263 -0.02535 -0.0622599 0.000423 -5.48034 -0.336292 2.52396 2650 
2875 1 -0.0290432 -0.0162244 -0.0621217 0.000423 -5.11498 0.0948888 2.40039 2650 
3989 1 -0.031286 -0.0266586 -0.061024 0.000423 -5.6974 -0.0553239 2.91242 2650 
1417 1 -0.033294 -0.0299258 -0.0603034 0.000116 -5.65094 0.147913 3.11552 2650 
1690 1 -0.0292554 -0.020269 -0.0605976 0.000423 -2.74781 -1.02413 2.43324 2650 
2160 1 -0.0325863 -0.0102372 -0.0606888 0.000116 -4.48354 -0.0541944 2.38559 2650 
4373 1 -0.0329722 -0.00694019 -0.0605639 4.2e-05 -3.73151 -0.183495 2.04997 2650 
4376 1 -0.0344206 -0.0347578 -0.0597525 4.2e-05 -5.93418 -3.27113 3.41788 2650 
2051 1 -0.0346623 -0.0185109 -0.0595275 0.000116 -5.04453 -0.144025 2.94692 2650 
2779 1 -0.0350525 -0.0296889 -0.0589436 0.000423 -5.67121 -0.00370418 3.34319 2650 
1798 1 -0.0356652 -0.0251121 -0.0585748 0.000423 -5.34621 -0.063048 3.23547 2650 
3381 1 -0.0358384 -0.0196767 -0.0588269 0.000116 -5.13063 -0.246652 3.11765 2650 
1849 1 -0.0361788 -0.0101677 -0.0586186 0.000116 -3.38566 -0.108215 2.0733 2650 
3718 1 -0.0364019 -0.00486576 -0.0585671 4.2e-05 -5.63415 -0.427434 3.48872 2650 
1503 1 -0.0360423 -0.000868671 -0.0587024 0.000116 -4.87504 0.117269 2.98141 2650 
167 1 -0.03745 -0.0401483 -0.0578144 0.000116 -5.67246 0.372801 3.70802 2650 
1924 1 -0.036208 -0.0372974 -0.0582402 0.000423 -5.17369 0.122851 3.22545 2650 
2296 1 -0.0373588 -0.031197 -0.0578739 0.000116 -4.72959 0.427088 3.04603 2650 
2395 1 -0.0372786 -0.0307693 -0.0579256 0.000116 -5.56397 -0.732588 3.58638 2650 
835 1 -0.037013 -0.0297844 -0.0580959 0.000116 -5.63344 0.0440127 3.60098 2650 
3636 1 -0.0367114 -0.0265871 -0.0579243 0.000423 -5.01874 0.0715785 3.17657 2650 
56 1 -0.0360167 -0.0259099 -0.0583589 0.000423 -5.26147 -0.108465 3.25962 2650 
4016 1 -0.0368325 -0.0245159 -0.0582097 0.000116 -5.43297 0.0711154 3.43359 2650 
1466 1 -0.037079 -0.023238 -0.0576888 0.000423 -4.91394 0.17486 3.16623 2650 
758 1 -0.0365822 -0.0224435 -0.0583672 0.000116 -3.71143 -0.471231 2.34333 2650 
2282 1 -0.0370585 -0.000335582 -0.0580658 0.000116 -5.07581 1.57076 3.23355 2650 
4068 1 -0.0378095 -0.0246794 -0.0572138 0.000423 -5.33596 -0.156477 3.56436 2650 
3963 1 -0.0385586 -0.025286 -0.0567118 0.000423 -5.36643 -0.122672 3.63479 2650 
3960 1 -0.0386322 -0.0230746 -0.056661 0.000423 -5.03652 -0.128417 3.43362 2650 
4325 1 -0.0385678 -0.0190901 -0.056705 0.000423 -5.13557 -0.0919983 3.46333 2650 
1378 1 -0.0392208 -0.00183386 -0.0566275 0.000116 -5.28862 1.59579 3.66164 2650 
338 1 -0.0395146 -0.00812119 -0.055767 0.000656 -5.47682 0.131264 3.92356 2650 
4204 1 -0.0415949 -0.0306174 -0.0545242 0.000423 -5.0127 0.31401 3.83135 2650 
1407 1 -0.0416417 -0.0175586 -0.0548705 0.000116 -4.97409 -0.962199 3.77617 2650 
625 1 -0.0429673 -0.0339367 -0.053841 0.000116 -4.77559 0.791446 3.80128 2650 
850 1 -0.042458 -0.0304313 -0.0542444 0.000116 -5.09279 0.504176 4.00009 2650 
1784 1 -0.0423904 -0.0272029 -0.0539067 0.000423 -4.81091 0.0924042 3.76184 2650 
341 1 -0.0422972 -0.0185832 -0.0536844 0.000656 -5.04251 -0.0219014 4.04352 2650 
3339 1 -0.0429652 -0.0267376 -0.0534488 0.000423 -4.76506 0.127372 3.8138 2650 
491 1 -0.0430435 -0.0178237 -0.0533865 0.000423 -4.88292 0.337769 3.91763 2650 
1593 1 -0.0437535 -0.0299426 -0.0528079 0.000423 -5.05836 -0.0653898 4.17902 2650 
2605 1 -0.044589 -0.0177144 -0.0524937 0.000116 -5.45992 -0.0502074 4.27789 2650 
2 1 -0.0437279 -0.0177157 -0.0525266 0.000656 -4.89699 -0.117505 4.09807 2650 
3155 1 -0.0447674 -0.0160721 -0.0523512 0.000116 -5.28319 0.0756998 4.51721 2650 
1436 1 -0.0433876 -0.0162925 -0.052808 0.000656 -4.92054 -0.0720037 3.98361 2650 
2421 1 -0.0443765 -0.0320971 -0.0519803 0.000656 -5.11622 -0.189509 4.38383 2650 
1638 1 -0.0455801 -0.0181993 -0.0516462 0.000116 -4.90222 -0.229116 4.32537 2650 
1157 1 -0.0455572 -0.00748735 -0.0516666 0.000116 -5.2221 0.0037768 4.62849 2650 
2198 1 -0.0469347 -0.0299044 -0.0505103 4.2e-05 -4.62719 -0.335316 4.28608 2650 
2340 1 -0.0463016 -0.0231631 -0.0505866 0.000423 -5.50806 -0.450538 5.09648 2650 
223 1 -0.0452773 -0.0014215 -0.0511964 0.000656 -5.88613 -0.0671112 5.20647 2650 
2083 1 -0.0478365 -0.000999406 -0.0496672 4.2e-05 -3.28321 -0.115542 3.16524 2650 
2048 1 -0.0488389 -0.0246843 -0.0485664 0.000116 -4.0486 0.259387 4.04613 2650 
1740 1 -0.0497277 -0.0389471 -0.0476604 0.000116 -3.65625 -0.00765646 3.82528 2650 
4069 1 -0.049583 -0.0264018 -0.0473657 0.000423 -4.45819 -0.0835986 4.74935 2650 
1833 1 -0.0494716 -0.00956654 -0.0479057 0.000116 -2.89569 -0.296791 3.08061 2650 
1640 1 -0.0496262 -0.00574665 -0.0478599 4.2e-05 -2.21541 -0.11599 2.44593 2650 
2765 1 -0.0499404 -0.0334959 -0.0469972 0.000423 -4.4521 0.00351753 4.87818 2650 
3005 1 -0.0498677 -0.023572 -0.0470728 0.000423 -3.95526 0.275187 4.32543 2650 
306 1 -0.0501317 -0.000517965 -0.04724 0.000116 -4.70213 0.0389633 5.03282 2650 
3779 1 -0.0506171 -0.0364524 -0.046269 0.000423 -5.00693 0.110711 5.4902 2650 
91 1 -0.0509709 -0.00150613 -0.0463352 0.000116 -5.44672 0.00662074 5.9915 2650 
3580 1 -0.0521736 -0.0331486 -0.0449766 0.000116 -4.32753 -0.764075 5.01513 2650 
1185 1 -0.0516089 -0.00474663 -0.0456239 0.000116 -3.95931 0.200997 4.46859 2650 
4305 1 -0.0516833 -0.00319361 -0.0450744 0.000423 -3.81821 -0.147985 4.38647 2650 
2832 1 -0.0525557 -0.0183013 -0.0445295 0.000116 -3.08534 -1.75856 3.63647 2650 
417 1 -0.0526453 -0.00513261 -0.0444237 0.000116 -2.14198 -0.133231 2.55925 2650 
1987 1 -0.0524674 -0.0130773 -0.0437983 0.000656 -2.80332 -0.148394 3.36852 2650 
1180 1 -0.0538389 -0.000800764 -0.0429693 0.000116 -3.70326 -0.0138729 4.62738 2650 
390 1 -0.0544682 -0.0354557 -0.0421692 0.000116 -3.27189 0.273249 4.23045 2650 
2062 1 -0.0520352 -0.00541807 -0.0419145 0.000116 -3.44557 -0.140627 1.09004 2650 
3337 1 -0.0546684 -0.0178335 -0.0414039 0.000423 -3.11735 -0.0287888 4.11611 2650 
2672 1 -0.0544714 -0.0165674 -0.0416633 0.000423 -3.01964 0.0951407 3.98748 2650 
1447 1 -0.0550507 -0.0274189 -0.0408946 0.000423 -3.80684 0.110573 5.10774 2650 
4213 1 -0.0553624 -0.0247981 -0.0404715 0.000423 -3.65933 0.0506726 4.99713 2650 
3986 1 -0.0551584 -0.0145223 -0.0407499 0.000423 -2.9311 0.0484664 3.95797 2650 
574 1 -0.0558877 -0.0199132 -0.0397431 0.000423 -3.15601 -0.0895401 4.40131 2650 
2745 1 -0.0571022 -0.027554 -0.03866 4.2e-05 -3.53245 -1.01973 5.20811 2650 
3785 1 -0.0571248 -0.0225253 -0.0384926 0.000116 -3.15572 0.409073 4.68771 2650 
1716 1 -0.0579933 -0.0217714 -0.0371718 0.000116 -3.13479 0.361481 4.87994 2650 
814 1 -0.0573871 -0.0193462 -0.0375441 0.000423 -2.69036 -0.394942 4.09217 2650 
2386 1 -0.0576287 -0.0178084 -0.0377346 0.000116 -2.47868 -0.250837 3.7603 2650 
2738 1 -0.0579226 -0.0160759 -0.0374182 4.2e-05 -2.47526 -0.0168078 3.84955 2650 
3881 1 -0.0577829 -0.0267712 -0.0369343 0.000423 -3.42858 0.0938196 5.33822 2650 
1723 1 -0.058165 -0.0119274 -0.0369017 0.000116 -2.29309 -0.553993 3.62597 2650 
3304 1 -0.0586172 -0.0210948 -0.0355931 0.000423 -2.35957 -0.451848 3.85938 2650 
2691 1 -0.0590668 -0.0342904 -0.0348442 0.000423 -3.27153 -0.0994079 5.57054 2650 
3018 1 -0.0588187 -0.0308509 -0.0352628 0.000423 -3.27173 -0.0633958 5.49536 2650 
3586 1 -0.0590417 -0.00911755 -0.0354778 0.000116 -2.55879 -0.250825 4.16735 2650 
3055 1 -0.0594885 -0.000125708 -0.034729 0.000116 -3.53338 -0.0626364 6.07082 2650 
955 1 -0.0591245 -0.000169861 -0.0353453 0.000116 -3.43768 -0.0149299 5.75672 2650 
1781 1 -0.0592452 -0.0374428 -0.034539 0.000423 -3.46992 -0.0795403 5.90862 2650 
528 1 -0.0596633 -0.0248269 -0.0344278 0.000116 -3.08599 -2.78385 5.29669 2650 
1282 1 -0.0595241 -0.0143027 -0.0346652 0.000116 -2.55439 -0.175503 4.2794 2650 
3626 1 -0.0591001 -0.0100473 -0.0343298 0.000656 -2.0301 -0.2623 3.07844 2650 
3649 1 -0.0600494 -0.0305382 -0.0331225 0.000423 -3.19964 0.19056 5.81247 2650 
3845 1 -0.0601635 -0.043808 -0.032429 0.000656 -3.73299 -0.116362 6.91519 2650 
575 1 -0.0604673 -0.0314454 -0.032353 0.000423 -3.12436 0.0646614 5.86673 2650 
416 1 -0.0606883 -0.0138597 -0.0325679 0.000116 -2.08013 -0.593919 3.77033 2650 
2055 1 -0.0611222 -0.0276437 -0.0317666 0.000116 -2.93013 -0.271456 5.60591 2650 
1751 1 -0.0611866 -0.0136773 -0.03178 4.2e-05 -2.34789 -0.126323 4.54427 2650 
2732 1 -0.0611245 -0.00410321 -0.0317547 0.000116 -2.36932 0.388368 4.58907 2650 
1433 1 -0.0607438 -0.0296046 -0.0313288 0.000656 -2.84146 0.0123507 5.54242 2650 
646 1 -0.0614708 -0.00204025 -0.0310823 0.000116 -2.39542 -0.194325 4.75238 2650 
404 1 -0.0614406 -0.0008933 -0.0311459 0.000116 -2.53251 -0.259021 4.97663 2650 
759 1 -0.0614266 -0.000288311 -0.0311729 0.000116 -2.39313 0.210199 4.71153 2650 
2039 1 -0.0617791 -0.0199429 -0.030468 0.000116 -2.08484 -0.278517 4.21727 2650 
3260 1 -0.0620261 -0.00301951 -0.0299567 0.000116 -2.64521 -0.3979 5.67743 2650 
681 1 -0.0622311 -0.0240936 -0.0288143 0.000423 -2.7195 -0.00256173 5.9225 2650 
3276 1 -0.0624768 -0.0215791 -0.0290116 0.000116 -2.30145 0.204508 4.92538 2650 
2877 1 -0.0620909 -0.00913183 -0.0290729 0.000423 -2.35139 -0.071202 4.9753 2650 
82 1 -0.0630535 -0.00639691 -0.0276943 0.000116 -1.97244 -0.260414 4.88378 2650 
203 1 -0.014474 -0.00425688 -0.0280148 0.000116 -2.24281 -0.108755 -4.34101 2650 
2117 1 -0.0628779 -0.0258169 -0.0273718 0.000423 -2.21122 -0.20672 5.11232 2650 
1458 1 -0.0630806 -0.00430225 -0.026902 0.000423 -2.20162 0.187383 5.09247 2650 
186 1 -0.00512519 -0.00381006 -0.0274172 0.000116 -0.72331 -0.0866456 -3.71252 2650 
2254 1 -0.0633969 -0.0279211 -0.026149 0.000423 -2.28038 -0.403535 5.3368 2650 
2601 1 -0.0637756 -0.0175549 -0.0260317 0.000116 -1.97224 -0.259552 4.85614 2650 
2087 1 -0.0640081 -0.0191672 -0.0256542 4.2e-05 -1.83421 0.931835 4.60061 2650 
1312 1 -0.06386 -0.0187673 -0.02602 4.2e-05 -1.6695 0.100119 4.12105 2650 
827 1 -0.063877 -0.000823716 -0.0257819 0.000116 -1.90754 -0.0982038 4.71172 2650 
2298 1 -0.0641141 -0.017207 -0.0251867 0.000116 -2.05874 0.047528 5.29036 2650 
3470 1 -0.0641686 -0.00905488 -0.0250468 0.000116 -1.87987 0.137264 4.789 2650 
2895 1 -0.0641533 -0.0216868 -0.0242317 0.000423 -2.15029 -0.0921355 5.63565 2650 
2728 1 -0.064698 -0.0163966 -0.0236469 0.000116 -2.1601 0.339706 5.90772 2650 
908 1 -0.0646091 -0.0223543 -0.0229869 0.000423 -2.10339 0.0162324 5.90865 2650 
2680 1 -0.064399 -0.0183458 -0.0235734 0.000423 -2.20907 0.20799 6.05152 2650 
2203 1 -0.0644214 -0.0192065 -0.0228292 0.000656 -2.15547 0.139116 6.02214 2650 
229 1 -0.0645009 -0.012038 -0.0226011 0.000656 -1.7718 -0.148388 5.02663 2650 
1733 1 -0.0654379 -0.0260499 -0.021495 0.000116 -1.96632 -0.807798 5.92623 2650 
132 1 -0.0651301 -0.0217827 -0.0214711 0.000423 -1.9769 -0.0222368 6.0094 2650 
518 1 -0.0652735 -0.0139398 -0.0220088 0.000116 -1.59932 0.141782 4.74816 2650 
443 1 -0.0654809 -0.0327657 -0.019568 0.000656 -1.78796 -0.034486 5.8209 2650 
3393 1 -0.0103205 -0.0055952 -0.019461 4.2e-05 -1.20415 -0.318601 -2.61577 2650 
2487 1 -0.0663833 -0.0374249 -0.0183888 0.000116 -1.66309 -0.0311915 5.95249 2650 
1218 1 -0.065737 -0.0305947 -0.0186866 0.000656 -1.63712 0.285809 5.81526 2650 
1042 1 -0.0664661 -0.0338679 -0.0168777 0.000423 -1.52987 -0.0266132 6.13867 2650 
606 1 -0.000183 0.00221435 -0.016592 0.000116 0 -0.011753 0 2650 
2520 1 -0.00029323 0.00473048 -0.0166943 4.2e-05 -0.0125271 0.0201098 0.013978 2650 
3095 1 -0.0665881 -0.0194719 -0.0163993 0.000423 -1.437 -0.128648 5.82223 2650 
2007 1 -0.0666153 -0.00662821 -0.0162918 0.000423 -0.982586 0.21089 3.9042 2650 
2172 1 -0.00327082 -0.00140684 -0.0163274 0.000116 0.0682862 0.00746542 -0.00852403 2650 
30 1 -0.00108591 -0.000513361 -0.016092 0.000423 -0.0136125 -0.0214967 0.00834717 2650 
2013 1 -0.00287872 0.00292564 -0.0159903 0.000423 -0.00154235 0.00221798 0.00156406 2650 
1679 1 -0.00390992 0.00369265 -0.0159746 0.000423 -0.00453729 0.0157155 0.00260015 2650 
2283 1 -0.00352143 0.00374379 -0.0164415 0.000116 -0.00010552 0.00956354 0.000789399 2650 
2301 1 -0.004222 0.00398735 -0.016305 4.2e-05 0 -0.011753 0 2650 
3121 1 -0.00085248 0.0051662 -0.0161982 0.000423 0.0292552 0.00121421 5.81941e-05 2650 
978 1 -0.00360182 0.00653949 -0.0162979 0.000116 0.0180122 -0.00353228 -0.00159853 2650 
3934 1 -0.001977 0.00697635 -0.016218 0.000116 0 -0.011753 0 2650 
3177 1 -0.000449369 0.00869957 -0.0158612 4.2e-05 0.00917698 -0.00185525 -0.00666376 2650 
289 1 -0.00283681 0.00970765 -0.0159269 0.000116 -0.00850769 0.000708308 0.0302001 2650 
1483 1 -0.00038985 0.00957786 -0.0159195 0.000423 -0.00134867 0.0112238 -0.0085204 2650 
3007 1 -0.00238031 0.0110021 -0.0161719 0.000423 -0.0135196 -0.00505473 -0.0280609 2650 
3500 1 -0.00138317 0.0107943 -0.0160656 4.2e-05 -0.0454796 -0.00333034 0.0313479 2650 
371 1 -0.000525448 0.010442 -0.0158386 0.000423 -0.00202239 0.0122439 -0.00806147 2650 
188 1 -0.00189613 0.0115981 -0.0164851 0.000116 -0.0148612 0.0228045 0.00418427 2650 
3644 1 -0.00115131 0.0128744 -0.0159645 0.000423 -0.000399523 0.00418678 0.0157329 2650 
2713 1 -0.000734625 0.0128331 -0.016358 0.000116 0.00037122 0.035974 0.00535071 2650 
2924 1 -0.00479766 0.0139315 -0.0159891 0.000116 -0.059039 0.0353164 0.00422158 2650 
148 1 -0.00404546 0.0332429 -0.0159958 0.000423 -0.15418 -0.150743 0.0286835 2650 
4010 1 -0.00444801 0.038566 -0.0159738 0.000116 -0.0944465 0.099748 0.0197066 2650 
945 1 -0.00522741 0.0498674 -0.0158558 0.000116 -0.192436 -0.107086 0.0844573 2650 
8 1 -0.0666813 -0.0414952 -0.0149981 0.000656 -1.81268 0.0404903 8.07327 2650 
509 1 -0.00741381 -0.000161985 -0.015117 0.000116 -0.0177725 -0.00949189 -0.00542934 2650 
736 1 -0.00599918 -0.000302529 -0.0154066 0.000116 -0.0307431 -0.0170391 0.0144389 2650 
2399 1 -0.002418 0.00242835 -0.015541 0.000116 0 -0.011753 0 2650 
3637 1 -0.00471364 0.00320722 -0.0156068 0.000423 -0.0121297 0.0118194 -0.00377228 2650 
2438 1 -0.00583511 0.00727129 -0.0150477 0.000423 -0.00468347 -0.000292455 -0.00123863 2650 
3830 1 -0.006879 0.00852835 -0.015411 4.2e-05 0 -0.011753 0 2650 
233 1 -0.00427274 0.00920399 -0.0152873 0.000423 0.0114684 -0.00558491 0.0116559 2650 
2793 1 -0.000813131 0.00908757 -0.0151379 0.000423 0.0113251 0.0911454 -0.00570485 2650 
86 1 -0.00334829 0.00982899 -0.0150027 0.000116 -0.0196067 0.0126222 0.000798653 2650 
2969 1 -0.00204315 0.00963021 -0.0150947 0.000656 -0.00775713 0.0181674 -1.8219e-05 2650 
1617 1 -0.00109436 0.0100585 -0.0150411 0.000116 0.0304013 0.00375314 0.0183235 2650 
938 1 -0.00142748 0.00988431 -0.015495 0.000116 -0.00119823 0.000558801 -0.00633771 2650 
1839 1 -0.00119429 0.014499 -0.0152648 0.000116 -0.0676852 0.0211351 0.0188737 2650 
3688 1 -0.0673034 -0.0149576 -0.0146721 0.000116 -1.49007 0.467145 6.79077 2650 
2666 1 -0.00602553 -0.00247217 -0.0143335 0.000423 0.0429038 -0.00888448 0.00629481 2650 
269 1 -0.000435499 -0.00309955 -0.0143645 0.000423 -0.0067037 -0.0325502 -0.00931701 2650 
1053 1 -0.007469 -0.00141365 -0.014946 0.000116 0 -0.011753 0 2650 
1961 1 -0.0673553 -0.000115999 -0.0144314 0.000116 -1.31429 9.94664e-05 6.09449 2650 
1991 1 -0.00678746 0.000354299 -0.01454 0.000656 -0.019376 -0.00203791 0.00870126 2650 
3239 1 -0.0054693 0.00136382 -0.0147085 0.000116 -0.0248133 -0.00752354 0.0120924 2650 
857 1 -0.00217199 0.0017376 -0.0149597 0.000116 -0.0623021 0.0193526 0.00200378 2650 
150 1 -0.00764803 0.00295003 -0.0142967 0.000423 -0.0542472 0.016714 0.0257745 2650 
220 1 -0.00347393 0.00312249 -0.0143011 4.2e-05 0.00197382 0.00663681 0.00671825 2650 
1388 1 -0.00410228 0.00538411 -0.0145926 0.000116 -0.039288 0.0021603 0.0169103 2650 
3365 1 -0.002315 0.00485435 -0.014552 0.000116 0 -0.011753 0 2650 
4227 1 -0.000558049 0.0053583 -0.0148708 0.000116 0.00143204 -0.0228975 -0.0290312 2650 
2313 1 -0.00391589 0.0077129 -0.0142941 0.000656 0.0121795 0.0249345 0.010824 2650 
581 1 -0.00563726 0.00801714 -0.0145963 0.000423 0.000441693 0.00100922 0.00165067 2650 
2092 1 -0.00661759 0.00913003 -0.0149001 0.000656 -0.0124968 -0.00293006 0.0184078 2650 
3669 1 -4.57572e-05 0.0101356 -0.0148602 0.000423 0.00311727 -0.00583333 -0.00141597 2650 
1228 1 -0.00164728 0.0111987 -0.0149713 0.000423 -0.0026547 0.0243513 0.000515369 2650 
4231 1 -0.00113154 0.017804 -0.0147877 0.000116 -0.0134934 0.0153003 0.0304581 2650 
3279 1 -0.00153114 0.0459409 -0.0149428 0.000116 0.0698602 -0.118112 -0.0910458 2650 
2021 1 -0.00660651 0.0549766 -0.0145137 0.000423 0.132959 -0.0939981 -0.0898992 2650 
2827 1 -0.0062871 -0.00332805 -0.013862 0.000116 -0.0884018 -0.0473524 -0.188746 2650 
623 1 -0.00750871 -0.000135291 -0.0135454 0.000116 -0.0192086 -0.00896372 0.0230222 2650 
2332 1 -0.00521857 -0.000479919 -0.0136647 0.000423 -0.0114447 -0.00779769 0.00753018 2650 
2922 1 -0.00732948 0.00138862 -0.0138895 0.000116 -0.00925852 -0.000802711 0.00675368 2650 
676 1 -0.00445565 0.00227838 -0.0135415 0.000423 -0.0128147 0.00889048 0.0204924 2650 
2512 1 -0.00803078 0.00281206 -0.0134869 0.000116 0.018779 -0.0192413 0.00230208 2650 
3587 1 -0.00802103 0.00343279 -0.0139506 0.000116 -0.0579635 0.0255056 0.0285778 2650 
1032 1 -0.00595262 0.00324427 -0.0135084 0.000423 0.0299121 -0.00820922 0.0127278 2650 
1684 1 -0.000109427 0.00330971 -0.0137678 0.000423 -0.00348729 -0.0115683 0.00145358 2650 
2913 1 -0.00889783 0.00495257 -0.0137232 0.000116 -0.0140945 -0.0228944 -0.00540615 2650 
1192 1 -0.00648123 0.00507637 -0.0138915 0.000116 -0.0160738 0.0171838 -0.0228619 2650 
2344 1 -0.000460049 0.00540854 -0.0139853 0.000423 0.00575909 -0.0231993 -0.0217047 2650 
2322 1 -0.00896125 0.00625922 -0.0135294 0.000656 -0.00203824 -0.0128094 0.00373659 2650 
2918 1 -0.00731834 0.0061523 -0.0139638 0.000116 0.0149777 0.0131491 0.0124233 2650 
1611 1 -0.00482274 0.00568081 -0.0141674 0.000116 0.0134772 -0.0209987 -0.0751807 2650 
1288 1 -0.002467 0.00615735 -0.014044 0.000116 0 -0.011753 0 2650 
3515 1 -0.00801037 0.00707266 -0.0139552 0.000656 -0.0102256 -0.00951753 -0.000478524 2650 
963 1 -0.00707291 0.00709046 -0.0140444 0.000116 0.00350227 -0.00324664 0.0156587 2650 
1618 1 -0.00999301 0.00745237 -0.0135248 0.000116 0.0059414 0.00192455 -0.00369393 2650 
2222 1 -0.000757314 0.00769601 -0.0138449 0.000423 0.00111949 0.00196985 0.02247 2650 
3702 1 -0.000123666 0.00732634 -0.0138344 0.000116 0.068038 -0.000891572 -0.0314572 2650 
1250 1 -0.00854278 0.00789814 -0.0134317 0.000423 -0.00730125 -0.00574558 -0.000431452 2650 
4257 1 -0.00791828 0.00791892 -0.0135678 0.000116 -0.00578911 -0.00907208 0.00958653 2650 
1769 1 -0.00750846 0.00858143 -0.0139952 0.000656 -0.0105422 -0.00425692 -0.00491908 2650 
1237 1 -0.00933864 0.00896052 -0.0134864 0.000423 0.00205875 0.0105454 -1.45263e-05 2650 
4190 1 -0.00855987 0.00881925 -0.0140793 0.000423 -0.0108251 0.00653221 0.00770144 2650 
1476 1 -0.00721969 0.00990208 -0.0134354 0.000423 -0.00473027 0.00118609 -0.000138689 2650 
1827 1 -0.00676398 0.0102041 -0.0137166 0.000116 0.0445821 -0.0304485 -0.00868089 2650 
1409 1 -0.00044 0.00993735 -0.013868 0.000116 0 -0.011753 0 2650 
70 1 -0.00688235 0.0104423 -0.0136682 0.000116 0.0420474 0.0335815 -0.0676972 2650 
2781 1 -0.00599375 0.0103739 -0.0138529 0.000423 -0.00287998 0.011096 -0.0317373 2650 
2182 1 -0.000484063 0.0107312 -0.014162 0.000116 -0.0273815 0.022445 -0.0411396 2650 
3150 1 -0.000657808 0.0108455 -0.0135981 0.000116 -0.0182263 -0.0087302 -0.0269448 2650 
3163 1 -0.00763469 0.0122185 -0.0135067 0.000116 -0.0370466 0.0283549 -0.0433006 2650 
2466 1 -0.00784252 0.0197555 -0.0138941 0.000423 0.048327 0.0396991 -0.0547289 2650 
1195 1 -0.00784075 0.0283372 -0.0137733 0.000116 0.0557766 0.0782116 -0.0138054 2650 
2643 1 -0.00607252 0.0308085 -0.013745 0.000656 -0.0823633 0.0688822 0.0201377 2650 
1124 1 -0.00364824 0.0357503 -0.0134579 0.000423 0.115227 0.0704534 -0.0460588 2650 
3683 1 -0.0675855 -0.0361566 -0.0133137 0.000116 -1.35021 0.20393 6.77298 2650 
4097 1 -0.00771939 -0.00305503 -0.0130246 0.000423 0.0222564 -0.0142204 -0.0225559 2650 
3576 1 -0.00541147 -0.00148876 -0.012812 0.000116 0.0561059 0.00120064 -0.0311085 2650 
3599 1 -0.00172387 -0.00119741 -0.0131108 0.000116 0.00758272 -0.00512374 -0.0536854 2650 
3191 1 -0.00873389 -0.00032509 -0.0127071 0.000656 -0.0137519 -0.00733615 -0.00341624 2650 
1022 1 -0.00350979 -0.000769714 -0.0127088 0.000423 -0.00789737 0.00635626 0.0363748 2650 
3477 1 -0.00517666 0.000329282 -0.0126414 0.000116 0.0183398 -0.0587002 0.0125841 2650 
2525 1 -0.004063 0.000384353 -0.013231 4.2e-05 0 -0.011753 0 2650 
4126 1 -0.00687453 0.000809005 -0.01294 0.000116 -0.0261531 0.0084042 0.00402279 2650 
2619 1 -0.00586803 0.00118967 -0.0128474 0.000116 -0.0137973 -0.0204082 0.00531131 2650 
4165 1 -0.00519948 0.00151397 -0.0130677 0.000656 -0.00295906 -0.0330191 0.0101422 2650 
3880 1 -0.0103049 0.00212137 -0.0129393 0.000423 0.00392499 -0.00667045 0.0103426 2650 
2609 1 -0.00886 0.00192435 -0.013248 0.000116 0 -0.011753 0 2650 
3917 1 -0.003984 0.00268535 -0.012703 0.000116 0 -0.011753 0 2650 
2059 1 -0.003583 0.00289435 -0.012756 0.000116 0 -0.011753 0 2650 
2474 1 -0.00226534 0.00310493 -0.012688 0.000423 0.0307748 -0.0136667 -0.043701 2650 
3316 1 -0.00936529 0.00336137 -0.0129987 0.000423 -0.00544519 -0.0183171 -0.00879554 2650 
1171 1 -0.00764978 0.00331721 -0.0131317 0.000116 0.0131753 -0.0110464 0.0150896 2650 
4300 1 -0.00107627 0.00331908 -0.0127912 0.000423 0.0464595 0.0171624 -0.0680193 2650 
3787 1 -0.00663774 0.00416196 -0.0128861 0.000116 -0.0024271 -0.00223267 -0.0195234 2650 
3446 1 -0.00130797 0.00441981 -0.0129075 0.000423 0.014297 -0.016402 -0.00312272 2650 
1427 1 -0.002948 0.00522535 -0.013376 4.2e-05 0 -0.011753 0 2650 
3362 1 -0.0026326 0.00487889 -0.0126532 0.000116 0.000350619 -0.00253681 -0.00404217 2650 
4078 1 -0.0104579 0.00588147 -0.0126429 0.000423 -0.000913784 0.00267709 0.00687214 2650 
2912 1 -0.00546827 0.0059859 -0.0131497 0.000116 0.00196064 0.0151142 0.00117299 2650 
445 1 -0.0100008 0.00706875 -0.0128514 0.000656 -0.00770604 -0.00218208 -0.00473086 2650 
3259 1 -0.00887529 0.00678801 -0.0127497 0.000116 0.00136236 -0.0113258 0.00321419 2650 
4179 1 -0.00782884 0.0068991 -0.0129001 0.000423 -0.0070231 -0.0226882 -0.00131956 2650 
1795 1 -0.00896441 0.00748194 -0.0127713 0.000423 -0.00333027 -0.00705618 0.0037936 2650 
3364 1 -0.00662957 0.00712686 -0.0127353 0.000116 -0.00179506 0.0163753 -0.0232219 2650 
2483 1 -0.00738233 0.00848457 -0.0129881 0.000116 0.0222317 -0.00887276 -0.000700143 2650 
205 1 -0.000744 0.00794135 -0.01334 0.000116 0 -0.011753 0 2650 
3847 1 -0.00945609 0.00988789 -0.012929 0.000656 0.00218348 0.0145646 -0.00497691 2650 
2453 1 -0.00621369 0.0100018 -0.0130181 0.000423 0.00287214 0.0261989 -0.0126472 2650 
1775 1 -0.00823644 0.0107418 -0.013079 0.000423 -0.000575409 -0.0115316 -0.00160845 2650 
1986 1 -0.00231883 0.0110069 -0.012867 0.000656 0.00762539 0.0149956 0.0116892 2650 
3471 1 -0.00801042 0.0111363 -0.0126576 0.000116 0.00654915 0.0415659 -0.0136084 2650 
3838 1 -0.00568465 0.0115713 -0.0127764 0.000656 0.0059045 0.0308137 -0.0288407 2650 