ITEM: TIMESTEP
2753490
ITEM: NUMBER OF ATOMS
4381
ITEM: BOX BOUNDS ff ff ff
-0.15 0.15
-0.15 0.06
-0.15 0.15
ITEM: ATOMS id type x y z radius vx vy vz density 
3810 1 -0.0377132 -0.0630321 -0.118617 0.000116 -7.09239 -0.0652316 -5.71272 2650 
3812 1 -0.00954773 -0.0466445 -0.0682193 0.000116 -4.60933 0.140496 0.649101 2650 
618 1 -0.0454668 -0.0571076 -0.0517326 0.000116 -3.47139 0.132655 3.14179 2650 
1740 1 -0.063616 -0.0486295 -0.0264197 0.000116 -1.45295 -0.169814 3.53074 2650 
1135 1 -0.0668131 -0.0620191 -0.015461 0.000423 -0.901106 -0.583587 3.76099 2650 
4037 1 -0.0681323 -0.0578769 -0.0101426 0.000116 -0.538205 -0.233852 3.54477 2650 
1462 1 -0.068105 -0.0596685 -0.00801882 0.000423 -0.718265 0.342825 5.49271 2650 
3850 1 -0.0684528 -0.0467083 -0.00411894 0.000423 -0.307169 -0.448825 3.97439 2650 
1612 1 -0.0683903 -0.0559574 0.00823497 0.000116 0.656037 -0.427258 5.58827 2650 
3089 1 -0.0669474 -0.0490906 0.014863 0.000423 1.47655 0.80041 6.70991 2650 
3946 1 -0.0665799 -0.0586297 0.0179483 4.2e-05 0.797296 -0.233371 3.34652 2650 
2702 1 -0.0660448 -0.0458518 0.019573 0.000116 1.4071 0.128693 4.24256 2650 
3252 1 -0.0646671 -0.0502465 0.0237234 0.000116 1.43296 -0.0413735 4.03316 2650 
3831 1 -0.0600832 -0.0616284 0.0338409 4.2e-05 4.67098 0.418003 8.29699 2650 
1943 1 -0.040946 -0.0487185 0.0553935 0.000116 3.22265 -0.481343 2.37415 2650 
3038 1 -0.0321978 -0.0459598 0.0608959 0.000116 4.18211 0.046136 2.22743 2650 
415 1 -0.0279405 -0.0588142 0.0629619 0.000116 5.93536 -0.0557999 2.63236 2650 
3409 1 -0.0263007 -0.0496943 0.0630746 0.000656 3.71458 -0.52782 1.6071 2650 
1816 1 -0.00143737 -0.0374429 -0.0688688 0.000116 -3.63667 -0.022924 0.0583165 2650 
2404 1 -0.00348268 -0.0303419 -0.0687933 0.000116 -3.79355 -0.396959 0.248832 2650 
2087 1 -0.00193314 -0.0170595 -0.0689306 4.2e-05 -3.2827 -0.367477 0.109534 2650 
1952 1 -0.00383446 -0.0160441 -0.0687766 0.000116 -4.30533 -0.478165 0.161702 2650 
1202 1 -0.00569782 -0.013653 -0.0686889 4.2e-05 -3.48869 -0.175369 0.260973 2650 
2588 1 -0.00274566 -0.0102807 -0.0688292 0.000116 -3.70758 -0.169423 0.188613 2650 
1407 1 -0.00395146 -0.00478034 -0.068768 0.000116 -3.70002 0.0297357 0.115457 2650 
379 1 -0.00460183 -0.0297305 -0.0684053 0.000423 -3.87783 -0.393065 0.154998 2650 
753 1 -0.00861757 -0.0255948 -0.0683358 0.000116 -3.14756 -0.313638 0.369477 2650 
575 1 -0.00499676 -0.0235264 -0.068393 0.000423 -3.62738 -0.492172 0.20454 2650 
1304 1 -0.0114545 -0.0202868 -0.0679254 0.000116 -3.7418 -0.357726 0.613016 2650 
3514 1 -0.00299615 -0.0155737 -0.0682792 0.000656 -4.16323 -0.306561 0.16991 2650 
2691 1 -0.00381549 -0.0113614 -0.0684699 0.000423 -3.79933 -0.369913 0.0252758 2650 
4069 1 -0.00436957 -0.010715 -0.0684242 0.000423 -3.58294 -0.130388 0.0939676 2650 
4009 1 -0.00765169 -0.00811489 -0.0684577 0.000116 -3.40061 -0.143245 0.252867 2650 
3375 1 -0.00579645 -0.00481964 -0.0686261 0.000116 -3.34414 -0.101545 0.277252 2650 
1275 1 -0.00915931 -0.0015779 -0.068271 0.000116 -3.49746 -0.0163483 0.446749 2650 
4305 1 -0.00385001 -0.000565789 -0.0684679 0.000423 -4.36612 -0.0522767 0.138778 2650 
336 1 -0.0117 -0.0230803 -0.0673367 0.000656 -4.36438 -0.199418 0.743047 2650 
2051 1 -0.0146874 -0.0165917 -0.0672989 0.000116 -3.92203 -0.729318 0.868181 2650 
83 1 -0.0124502 -0.0161066 -0.0677488 0.000116 -3.35334 -0.350249 0.5959 2650 
981 1 -0.0153779 -0.0147638 -0.0672212 4.2e-05 -3.25161 -0.271391 0.761534 2650 
2703 1 -0.0141776 -0.0120502 -0.0674082 0.000116 -3.22038 -0.282721 0.709134 2650 
3671 1 -0.0101568 -0.00566654 -0.0671283 0.000423 -3.83095 0.236568 -0.689269 2650 
2350 1 -0.0144958 -0.0160802 -0.0670278 0.000423 -3.9624 -0.716524 0.880923 2650 
2705 1 -0.00693108 -0.0126401 -0.0666789 0.000116 -1.05822 -0.868743 -10.1875 2650 
2291 1 -0.0180531 -0.00548826 -0.0664761 0.000116 -3.14743 -0.0935379 0.85296 2650 
228 1 -0.0191328 -0.0207878 -0.0656134 0.000656 -4.2983 -0.220589 1.31873 2650 
2745 1 -0.0197713 -0.0196219 -0.0660623 4.2e-05 -3.17005 -0.272133 0.940672 2650 
2966 1 -0.0166411 -0.0113857 -0.06629 0.000656 -3.06367 -0.351823 0.722991 2650 
2198 1 -0.0193987 -0.00812272 -0.0661735 4.2e-05 -6.14599 -1.13113 1.80383 2650 
3615 1 -0.0197185 -0.0051573 -0.0660787 4.2e-05 -6.50702 -0.0897902 1.94917 2650 
223 1 -0.0190545 -0.00450472 -0.065637 0.000656 -6.48247 -0.0119646 1.88751 2650 
3154 1 -0.0212834 -0.0146934 -0.0655138 0.000116 -3.3917 -0.250756 1.08123 2650 
2256 1 -0.0214491 -0.0135976 -0.0653786 0.000116 -3.68539 -0.0586858 0.555678 2650 
2296 1 -0.0242138 -0.021409 -0.0644879 0.000116 -3.42333 -0.16076 1.26705 2650 
747 1 -0.0127452 -0.0169244 -0.0645023 0.000116 -3.11486 -0.947009 0.0925191 2650 
3724 1 -0.027538 -0.0227014 -0.0632205 4.2e-05 -2.92463 -0.427664 1.25634 2650 
3570 1 -0.0275906 -0.0396026 -0.0631171 0.000116 -3.13279 -0.58624 1.33507 2650 
163 1 -0.0269484 -0.0288116 -0.0630607 0.000423 -3.76815 -0.317105 1.59163 2650 
2732 1 -0.0292644 -0.00934465 -0.0623275 0.000116 -2.87125 -0.363275 1.37585 2650 
3580 1 -0.032532 -0.0156436 -0.0607138 0.000116 -3.34005 -0.647413 1.76332 2650 
2895 1 -0.0328154 -0.00649633 -0.0602161 0.000423 -3.50905 -0.047342 1.99947 2650 
3372 1 -0.0357691 -0.0289073 -0.0588693 0.000116 -2.96789 -0.312574 1.79751 2650 
3018 1 -0.0347778 -0.0260452 -0.0591057 0.000423 -3.21099 -0.526799 1.86949 2650 
1601 1 -0.0364355 -0.0222073 -0.0584587 0.000116 -3.60461 -0.312502 2.27739 2650 
2165 1 -0.0358324 -0.0087536 -0.0585065 0.000116 -4.72342 -0.592016 -0.355163 2650 
1136 1 -0.0361358 -0.0235324 -0.0582851 0.000423 -4.04624 -0.00160378 2.51493 2650 
4087 1 -0.0363313 -0.0175715 -0.0581625 0.000423 -3.30435 -0.210216 2.0574 2650 
2858 1 -0.0365824 -0.0164997 -0.0577311 0.000656 -3.94284 -0.305261 2.46508 2650 
1461 1 -0.0368108 -0.0115083 -0.0578625 0.000423 -3.77653 -0.180862 2.42243 2650 
333 1 -0.0357836 -0.00440255 -0.0582296 0.000656 -4.72015 -0.0874196 2.90193 2650 
2557 1 -0.0384132 -0.0266639 -0.0568085 0.000423 -3.80533 -0.381921 2.54172 2650 
2928 1 -0.0391929 -0.0177615 -0.056647 0.000116 -2.82165 -0.270344 1.93661 2650 
1535 1 -0.0395875 -4.20135e-05 -0.0564627 4.2e-05 -4.00919 0.00283286 2.79217 2650 
893 1 -0.044317 -0.0369728 -0.0523267 0.000423 -2.8967 -0.43062 2.36488 2650 
2679 1 -0.0445444 -0.0234825 -0.0521422 0.000423 -2.82004 -0.355787 2.43359 2650 
3470 1 -0.0444572 -0.00788119 -0.0526166 0.000116 -3.31815 -0.369796 2.79436 2650 
38 1 -0.0438839 -0.00780426 -0.052698 0.000423 -3.29765 -0.386035 2.77789 2650 
1841 1 -0.04617 -0.0142116 -0.0511205 0.000116 -2.69118 -0.267989 2.41563 2650 
1207 1 -0.0483958 -0.0155427 -0.0491226 4.2e-05 -2.44935 -0.248773 2.3794 2650 
3265 1 -0.0490048 -0.00456769 -0.0484098 0.000116 -2.25366 -0.0481151 2.30997 2650 
3531 1 -0.0490096 -0.0241856 -0.0479681 0.000423 -2.97382 -0.01879 3.0345 2650 
3319 1 -0.0497283 -0.0278741 -0.0472233 0.000423 -2.85291 -0.268084 3.05104 2650 
1537 1 -0.0505763 -0.0151462 -0.0468745 4.2e-05 -2.33902 -0.229233 2.50871 2650 
167 1 -0.0151533 -0.00696707 -0.046115 0.000116 -2.27648 -0.334389 -6.93705 2650 
1320 1 -0.0511028 -0.00515509 -0.0463 4.2e-05 -2.17695 -0.127932 2.39402 2650 
2820 1 -0.0511193 -0.00462718 -0.0461705 0.000116 -2.18818 -0.0809382 2.48693 2650 
2232 1 -0.0517232 -0.0294061 -0.0450307 0.000423 -2.86591 -0.0423517 3.28648 2650 
1042 1 -0.0517448 -0.0188831 -0.0450044 0.000423 -2.19113 -0.352372 2.48412 2650 
3683 1 -0.0526122 -0.0354156 -0.044463 0.000116 -2.69341 -0.45266 3.2062 2650 
3015 1 -0.0519383 -0.0147339 -0.0447795 0.000423 -2.74618 -1.05489 3.13453 2650 
827 1 -0.0547858 -0.00603808 -0.0417559 0.000116 -1.97353 -0.132601 2.54296 2650 
850 1 -0.0561256 -0.0269077 -0.0399328 0.000116 -2.44623 -0.34443 3.42308 2650 
1914 1 -0.0559249 -0.0263505 -0.0396865 0.000423 -2.3168 -0.215938 3.31752 2650 
4068 1 -0.0556263 -0.010289 -0.0401034 0.000423 -1.82202 -0.0707786 2.49046 2650 
1905 1 -0.0561924 -0.0273547 -0.0393123 0.000423 -2.30218 -0.193673 3.40283 2650 
3229 1 -0.0565878 -0.00740657 -0.0387337 0.000423 -2.13876 -0.151474 3.03598 2650 
4074 1 -0.0566833 -0.00641735 -0.0385863 0.000423 -1.85362 -0.081622 2.63035 2650 
483 1 -0.057735 -0.0406397 -0.0370075 0.000423 -2.17237 -0.151916 3.38456 2650 
758 1 -0.0581708 -0.0293297 -0.0368783 0.000116 -2.81798 1.08206 4.39379 2650 
2601 1 -0.0594489 -0.0105707 -0.0347737 0.000116 -1.77197 -0.194199 2.92247 2650 
4019 1 -0.0590594 -0.00735821 -0.0354458 0.000116 -2.05719 -0.251993 3.03773 2650 
428 1 -0.0251468 -0.00646721 -0.0348615 0.000116 -3.65181 -0.322308 -5.03638 2650 
3066 1 -0.0612912 -0.0256743 -0.0314037 4.2e-05 -1.31764 0.220735 2.35933 2650 
2353 1 -0.0613538 -0.0258103 -0.0306379 0.000423 -1.74591 -0.0697806 3.46715 2650 
427 1 -0.0634278 -0.0253725 -0.0268678 0.000116 -1.55245 -0.26157 3.66905 2650 
4139 1 -0.063734 -0.0171835 -0.0261342 0.000116 -1.25578 -0.319986 3.10244 2650 
397 1 -0.0647586 -0.0104536 -0.0234828 0.000116 -1.27842 -0.210185 3.46847 2650 
1877 1 -0.0648272 -0.00794716 -0.0216463 0.000656 -1.02771 0.00498873 3.17681 2650 
3276 1 -0.0659898 -0.0347001 -0.0197576 0.000116 -1.16085 -0.0640721 3.91416 2650 
1081 1 -0.0657985 -0.0140909 -0.020384 0.000116 -1.03727 -0.295559 3.32546 2650 
578 1 -0.0656443 -0.0018767 -0.0198415 0.000423 -1.2335 -0.181971 3.99212 2650 
4210 1 -0.0657278 -0.0233054 -0.0195648 0.000423 -1.17412 -0.624916 3.8783 2650 
2835 1 -0.0664149 -0.01938 -0.0182752 0.000116 -0.888768 -0.383499 3.23256 2650 
759 1 -0.0663387 -0.00957341 -0.0185555 0.000116 -1.26793 -0.103671 4.55272 2650 
606 1 -0.000183 0.00433567 -0.016592 0.000116 0 -0.011753 0 2650 
2713 1 -0.000763 0.0113067 -0.016767 0.000116 0 -0.011753 0 2650 
2102 1 -0.0664327 -0.0198223 -0.0160531 0.000656 -1.1977 -0.158158 4.86262 2650 
814 1 -0.06656 -0.0180475 -0.0165126 0.000423 -1.03582 -0.2133 4.18551 2650 
2436 1 -0.0620227 -0.0109488 -0.0164638 0.000423 -9.42606 -0.59215 -2.46937 2650 
2127 1 -0.00161831 -0.00234517 -0.0163139 0.000423 -0.0666802 -0.0265353 -0.0830197 2650 
856 1 -0.000410052 -0.00224723 -0.0163125 0.000116 0.084886 -0.0869126 -0.0858312 2650 
93 1 -0.00527809 -0.00128343 -0.01587 0.000116 -0.0674932 -0.0307806 0.026204 2650 
4116 1 -0.004072 -0.00132133 -0.016193 0.000116 0 -0.011753 0 2650 
1808 1 -0.00308439 -0.00132534 -0.01585 0.000423 -0.0435639 -0.0103892 0.0208535 2650 
2875 1 -0.000757008 -0.00131879 -0.0161066 0.000423 -0.0847414 -0.037633 0.0264803 2650 
2606 1 -0.00017707 -0.00144388 -0.0163143 0.000116 -0.0805419 -0.112845 0.0598694 2650 
1991 1 -0.00301969 0.00074244 -0.0159356 0.000656 -0.0303568 -0.00285554 0.00655759 2650 
150 1 -0.00184286 0.000536341 -0.0162953 0.000423 -0.00905839 0.0051051 -0.00106565 2650 
736 1 -0.003429 0.00226067 -0.016474 0.000116 0 -0.011753 0 2650 
676 1 -0.000380613 0.00181589 -0.0164898 0.000423 -0.0285827 0.0077176 0.0232959 2650 
2013 1 -0.00301401 0.00361259 -0.0161944 0.000423 0.00266818 -0.00871737 -0.00337826 2650 
1698 1 -0.000218146 0.00336863 -0.0159425 0.000423 -0.0123561 0.00250859 -0.0148315 2650 
2301 1 -0.004222 0.00610867 -0.016305 4.2e-05 0 -0.011753 0 2650 
3546 1 -0.00201161 0.00627306 -0.016195 0.000423 0.0353679 0.0277321 0.00286657 2650 
3789 1 -0.00173392 0.00573676 -0.016417 0.000116 0.030547 0.0102001 0.00865191 2650 
188 1 -0.00068 0.00587767 -0.016516 0.000116 0 -0.011753 0 2650 
3616 1 -0.000938 0.00667267 -0.016074 4.2e-05 0 -0.011753 0 2650 
508 1 -0.00223537 0.00723475 -0.0163046 0.000116 -0.0867988 0.00663082 -0.017321 2650 
3934 1 -0.001977 0.00909767 -0.016218 0.000116 0 -0.011753 0 2650 
3859 1 -0.000534544 0.0230788 -0.0164862 0.000423 0.0773684 0.138986 0.0441279 2650 
1347 1 -0.0030861 0.0322924 -0.0158838 0.000423 -0.162332 0.209952 0.0301271 2650 
3479 1 -0.0670985 -0.0159196 -0.0155751 0.000116 -0.698969 -0.32954 3.26517 2650 
1924 1 -0.0144457 -0.00642372 -0.0150202 0.000423 -1.3885 -0.588242 -1.45214 2650 
3904 1 -0.00288026 -0.00172467 -0.0152887 0.000116 -0.0744835 -0.0382529 -0.0809148 2650 
330 1 -0.001698 -0.00164633 -0.015557 4.2e-05 0 -0.011753 0 2650 
2965 1 -0.000598361 -0.00169649 -0.01566 4.2e-05 -0.0448143 -0.0612344 0.0351436 2650 
3196 1 -0.00610091 -0.00097932 -0.0151793 0.000423 -0.0194273 -0.0238555 -0.0431032 2650 
3733 1 -0.00411163 -0.000123113 -0.015622 0.000656 -0.0212233 0.00596614 0.0148962 2650 
541 1 -0.00329568 -0.000397662 -0.0154976 4.2e-05 -0.0428204 0.0143713 0.0426846 2650 
2645 1 -0.00137879 -0.00022071 -0.0153153 0.000656 -0.0760751 -0.0478553 -0.0891054 2650 
2313 1 -0.00489068 0.00123577 -0.0154032 0.000656 -0.0073604 0.0572321 -0.0107098 2650 
1618 1 -0.00655607 0.00201781 -0.0152659 0.000116 0.156855 -0.0282355 -0.0171645 2650 
1093 1 -0.00438258 0.00311461 -0.0155102 4.2e-05 -0.0377884 0.0174852 0.109535 2650 
1679 1 -0.00361119 0.00331306 -0.0155888 0.000423 -0.000267589 -0.00703629 -0.00433961 2650 
3322 1 -0.00460913 0.00461484 -0.0150891 0.000423 0.00353739 -0.017928 0.0139954 2650 
2399 1 -0.002418 0.00454967 -0.015541 0.000116 0 -0.011753 0 2650 
3121 1 -0.00605416 0.00504996 -0.0152637 0.000423 0.0277737 -0.000599869 -0.0089826 2650 
1219 1 -0.0026319 0.00546734 -0.0155102 0.000656 0.0264793 0.011011 -0.00651516 2650 
3380 1 -0.00202604 0.00505229 -0.0150716 0.000116 -0.00549837 0.0130283 0.0301104 2650 
4296 1 -0.00157668 0.00503019 -0.0157047 0.000423 0.0010665 -0.0125591 -0.00338285 2650 
234 1 -0.00424492 0.00552937 -0.0150617 0.000423 0.00472056 -0.0217141 -0.0831894 2650 
978 1 -0.005372 0.00779567 -0.015286 0.000116 0 -0.011753 0 2650 
2969 1 -0.00138114 0.00712001 -0.0153518 0.000656 -1.31448e-05 -0.0117221 0.000199617 2650 
3515 1 -0.00620496 0.00886967 -0.0150125 0.000656 -0.0174328 -0.0125485 0.0128585 2650 
3177 1 -0.001068 0.0101537 -0.015412 4.2e-05 0 -0.011753 0 2650 
3830 1 -0.006879 0.0106497 -0.015411 4.2e-05 0 -0.011753 0 2650 
86 1 -0.002064 0.0103537 -0.015055 0.000116 0 -0.011753 0 2650 
938 1 -0.000869 0.0115597 -0.015416 0.000116 0 -0.011753 0 2650 
1979 1 -0.00202881 0.0131875 -0.0153967 4.2e-05 -0.0899116 0.138255 -0.11345 2650 
675 1 -0.00360583 0.0135335 -0.0156372 0.000423 -0.0185613 0.11548 0.0749126 2650 
4267 1 -0.00514976 0.021882 -0.0150854 4.2e-05 -0.061885 0.176997 -0.181487 2650 
2701 1 -0.0015923 0.0217117 -0.0154554 0.000116 0.0331549 0.247236 -0.00676049 2650 
1548 1 -0.000977217 0.0303871 -0.0155059 0.000656 0.0728943 0.135789 0.130375 2650 
1481 1 -0.0669268 -0.0287548 -0.0149316 0.000423 -0.911853 -0.698276 3.61641 2650 
3502 1 -0.001236 -0.00254133 -0.014816 4.2e-05 0 -0.011753 0 2650 
1716 1 -0.06738 -0.00193546 -0.0143113 0.000116 -0.649628 0.374755 3.38605 2650 
2690 1 -0.0016482 -0.00191523 -0.0147059 0.000423 0.00575807 -0.0176374 -0.0624722 2650 
1640 1 -0.001358 -0.00120833 -0.014495 4.2e-05 0 -0.011753 0 2650 
3441 1 -0.00317248 -0.000742854 -0.0144004 0.000423 0.0511961 0.0224295 0.00157087 2650 
2413 1 -0.003433 -0.000526327 -0.014868 4.2e-05 0 -0.011753 0 2650 
1053 1 -0.007469 0.000707673 -0.014946 0.000116 0 -0.011753 0 2650 
3351 1 -0.00136824 0.000779906 -0.0146395 0.000116 0.0916923 -0.0624662 0.0949948 2650 
2332 1 -0.003268 0.000998673 -0.014853 0.000423 0 -0.011753 0 2650 
3239 1 -0.002155 0.000917673 -0.014442 0.000116 0 -0.011753 0 2650 
248 1 -0.00258599 0.00182549 -0.0144113 0.000423 -0.125752 -0.00445654 0.0417904 2650 
220 1 -0.003649 0.00361267 -0.014897 4.2e-05 0 -0.011753 0 2650 
104 1 -0.00231593 0.00440142 -0.0143193 4.2e-05 -0.00674979 0.0150481 0.0116551 2650 
4165 1 -0.00541672 0.00569418 -0.0143679 0.000656 0.00388545 0.0106393 0.0146387 2650 
3147 1 -0.00220213 0.00580579 -0.014237 0.000116 -0.00706837 0.0221131 0.0132401 2650 
2438 1 -0.005612 0.00691067 -0.014612 0.000423 0 -0.011753 0 2650 
3365 1 -0.002315 0.00697567 -0.014552 0.000116 0 -0.011753 0 2650 
3564 1 -0.000147 0.00633867 -0.014738 0.000423 0 -0.011753 0 2650 
1986 1 -0.00369515 0.00830029 -0.0149768 0.000656 0.00762539 0.0149956 0.0116892 2650 
4190 1 -0.00732706 0.00870153 -0.014635 0.000423 -0.000739016 -0.00663112 -0.00697295 2650 
958 1 -0.00483086 0.00903214 -0.0143297 0.000116 0.0401715 0.0303898 0.081686 2650 
2596 1 -0.00445375 0.00926004 -0.0149564 0.000116 -0.0696583 -0.0414928 -0.0233005 2650 
1228 1 -0.00131046 0.0104299 -0.0149503 0.000423 -0.00123313 -0.0118667 -0.000623591 2650 
371 1 -0.000530913 0.0105871 -0.0146492 0.000423 0.000724313 -0.00601752 -0.0061741 2650 
3669 1 -0.000481645 0.0114107 -0.0142687 0.000423 0.00220454 -0.00743356 -0.00383523 2650 
3632 1 -0.00739819 0.0127952 -0.0147493 0.000423 -0.0240755 -0.00064867 0.0133566 2650 
819 1 -0.00848217 0.0267725 -0.0142298 0.000423 -0.0315835 0.180598 -0.150119 2650 
1636 1 -0.00389969 0.0446471 -0.0149142 0.000116 0.319403 -0.362976 -0.00255225 2650 
3622 1 -0.0668929 -0.0276322 -0.013956 0.000656 -0.801365 -0.632454 3.70443 2650 
327 1 -0.00363018 -0.0033328 -0.0136491 4.2e-05 -0.135956 -0.0239296 -0.542679 2650 
4056 1 -0.00193499 -0.00306017 -0.014128 0.000656 0.0383434 -0.0540813 -0.0090439 2650 
1393 1 -0.0099146 -0.00218633 -0.0134786 0.000116 -0.0601138 -0.0109855 0.00849791 2650 
3200 1 -0.00768692 -0.000954107 -0.0140355 0.000423 0.0205513 0.040167 0.0362369 2650 
3999 1 -0.00205303 -0.00134837 -0.0141244 0.000423 0.0633626 0.0169102 -0.00167385 2650 
2783 1 -0.0024082 -6.3317e-05 -0.0140264 0.000423 0.0359054 0.0369528 -0.00810704 2650 
4126 1 -0.00215412 -0.000707884 -0.0136661 0.000116 -0.0261531 0.0084042 0.00402279 2650 
3778 1 -0.00390279 0.000360294 -0.0138247 0.000423 -0.00179903 -0.0118226 -0.00159569 2650 
2827 1 -0.00332086 0.000559607 -0.0135778 0.000116 0.02715 0.018299 -0.0168884 2650 
2219 1 -0.00856554 0.00228067 -0.0138892 0.000423 0.0576419 0.0279299 0.011145 2650 
1125 1 -0.00187855 0.001897 -0.0137301 0.000423 -0.0447254 0.0166037 0.0212545 2650 
1620 1 -0.0081808 0.00280599 -0.0141391 0.000116 0.0432755 0.0552866 -0.0445268 2650 
3645 1 -0.00243355 0.003728 -0.0141911 0.000423 -0.0160854 0.00255483 0.0270818 2650 
3587 1 -0.0061566 0.00400977 -0.0137679 0.000116 0.00461134 0.0023037 -0.00278329 2650 
2322 1 -0.0073865 0.00809364 -0.0137236 0.000656 -0.00712523 -0.00504228 -0.00401487 2650 
1288 1 -0.002467 0.00827867 -0.014044 0.000116 0 -0.011753 0 2650 
2222 1 -0.000169 0.00890767 -0.014111 0.000423 0 -0.011753 0 2650 
581 1 -0.005568 0.00979967 -0.014167 0.000423 0 -0.011753 0 2650 
2483 1 -0.00889337 0.0115807 -0.0135955 0.000116 -0.0165283 -0.027419 -0.0195094 2650 
1476 1 -0.006941 0.0110787 -0.013435 0.000423 0 -0.011753 0 2650 
1409 1 -0.00044 0.0120587 -0.013868 0.000116 0 -0.011753 0 2650 
884 1 -0.00610872 0.0136077 -0.0134348 0.000656 -0.0213431 0.0225291 0.0346991 2650 
1357 1 -0.00795843 0.0229543 -0.0140708 0.000423 -0.0662446 0.165624 0.033916 2650 
1900 1 -0.00765532 0.0247878 -0.0138646 0.000423 0.00650864 0.175596 0.0646267 2650 
1132 1 -0.0673711 -0.0350776 -0.0127928 0.000423 -1.02827 -0.573203 5.37687 2650 
601 1 -0.0672587 -0.0256091 -0.0133727 0.000423 -0.900737 -0.0166789 4.40985 2650 
2544 1 -0.00545793 -0.00378614 -0.0127323 0.000423 -0.309686 -0.244 -0.560977 2650 
3633 1 -0.00941 -0.00292533 -0.013111 0.000423 0 -0.011753 0 2650 
3295 1 -0.00579291 -0.00280322 -0.0130647 0.000656 -0.140895 0.0623342 -0.0300138 2650 
2559 1 -0.00255408 -0.003073 -0.0130795 0.000423 -0.0863785 -0.0258812 -0.0383403 2650 
3303 1 -0.00909908 -0.00173829 -0.0133823 0.000656 -0.0523955 0.0509296 0.0372036 2650 
388 1 -0.00856677 -0.000382382 -0.013292 0.000116 -0.0420133 -0.0198333 -0.0745178 2650 
955 1 -0.00503382 -0.000732847 -0.0134162 0.000116 -0.12233 -0.0547202 -0.0330024 2650 
3551 1 -0.005293 0.000419673 -0.013215 0.000423 0 -0.011753 0 2650 
450 1 -0.00752856 0.00101418 -0.0133115 0.000656 -0.028043 0.0444023 -0.0860848 2650 
3637 1 -0.00263964 0.000870922 -0.0133125 0.000423 -0.0253615 0.00907389 -0.0496618 2650 
1774 1 -0.000801276 0.00180957 -0.0127081 0.000423 0.0334231 0.0535311 -0.0530131 2650 
4371 1 -0.000512899 0.00209434 -0.0131557 0.000116 0.0456485 0.0445316 -0.0721308 2650 
2283 1 -0.000654054 0.00231635 -0.0129103 0.000116 0.0261736 0.0795444 -0.0359083 2650 
2525 1 -0.004063 0.00250567 -0.013231 4.2e-05 0 -0.011753 0 2650 
1595 1 -0.007474 0.00316367 -0.012756 0.000423 0 -0.011753 0 2650 
2619 1 -0.005851 0.00332167 -0.012854 0.000116 0 -0.011753 0 2650 
3880 1 -0.010277 0.00423767 -0.012913 0.000423 0 -0.011753 0 2650 
2609 1 -0.00886 0.00404567 -0.013248 0.000116 0 -0.011753 0 2650 
2194 1 -0.00274599 0.00455143 -0.0126847 4.2e-05 0.00491046 0.00111596 0.00228026 2650 
222 1 -0.00157035 0.00436193 -0.0132318 0.000656 -0.00693584 -0.0507115 -0.0323512 2650 
2918 1 -0.00757 0.00539667 -0.012948 0.000116 0 -0.011753 0 2650 
3917 1 -0.003984 0.00480667 -0.012703 0.000116 0 -0.011753 0 2650 
2059 1 -0.003583 0.00501567 -0.012756 0.000116 0 -0.011753 0 2650 
2547 1 -0.0097695 0.00606846 -0.013106 0.000423 -0.0347886 0.0314203 0.0010098 2650 
1584 1 -0.00292117 0.0060509 -0.0133359 0.000423 0.0377863 -0.0108548 -0.0614448 2650 
4078 1 -0.00718285 0.00718592 -0.0128363 0.000423 -0.0196946 -0.00953845 0.00130892 2650 
1427 1 -0.002948 0.00734667 -0.013376 4.2e-05 0 -0.011753 0 2650 
3259 1 -0.008055 0.00841167 -0.013388 0.000116 0 -0.011753 0 2650 
713 1 -0.00576497 0.00835168 -0.0130487 0.000423 -0.0229952 -0.0104665 0.0222494 2650 
1795 1 -0.008775 0.00934567 -0.012959 0.000423 0 -0.011753 0 2650 
1769 1 -0.00501224 0.00925441 -0.0131785 0.000656 -0.011011 -0.0133928 0.00327466 2650 
205 1 -0.000744 0.0100627 -0.01334 0.000116 0 -0.011753 0 2650 
1775 1 -0.00822117 0.0127623 -0.0130111 0.000423 -7.29146e-05 -0.011186 -0.000346901 2650 
3644 1 -0.000733 0.0127337 -0.013392 0.000423 0 -0.011753 0 2650 
2109 1 -0.00348949 0.0147468 -0.0133402 0.000423 -0.0263796 0.073224 -0.0180073 2650 
3455 1 -0.00200888 0.0146167 -0.012904 0.000423 -0.039909 0.0392628 -0.197047 2650 
728 1 -0.00330508 0.0169346 -0.0132233 0.000116 0.0277452 0.106546 0.043675 2650 
2467 1 -0.00392397 0.0197844 -0.0128524 0.000423 0.022189 0.122131 -0.0980488 2650 
3453 1 -0.00812025 0.0328917 -0.0133854 0.000423 0.0494691 0.284608 0.0822627 2650 
121 1 -0.0672059 -0.0126124 -0.0124138 0.000656 -0.946579 -0.524907 4.28371 2650 
4150 1 -0.00321884 -0.00336827 -0.0124781 0.000116 -0.221224 -0.0441669 -0.51933 2650 
868 1 -0.000201 -0.00329533 -0.012301 0.000116 0 -0.011753 0 2650 
1487 1 -0.00489015 -0.00256576 -0.0120343 0.000116 -0.0286894 0.0639382 0.0557328 2650 
3261 1 -0.0677707 -0.00103037 -0.0123297 0.000116 -0.78616 0.278967 4.17935 2650 
2939 1 -0.00917132 -0.00156535 -0.0122551 0.000116 -0.0411394 0.0381719 0.0659172 2650 
2819 1 -0.007468 -0.000935327 -0.012046 0.000116 0 -0.011753 0 2650 
2468 1 -0.003167 -0.00109633 -0.012131 0.000423 0 -0.011753 0 2650 
545 1 -0.002328 -0.00146933 -0.012432 4.2e-05 0 -0.011753 0 2650 
1763 1 -0.001143 -0.000808327 -0.012442 0.000656 0 -0.011753 0 2650 
950 1 -0.010031 -0.000203327 -0.011866 0.000116 0 -0.011753 0 2650 
623 1 -0.005429 0.00154467 -0.012246 0.000116 0 -0.011753 0 2650 
1422 1 -0.003881 0.00103767 -0.012349 4.2e-05 0 -0.011753 0 2650 
3201 1 -0.00490978 0.00170172 -0.0119135 0.000423 -0.0315108 -0.0171394 -0.0326274 2650 
1799 1 -0.003237 0.00185267 -0.012061 0.000423 0 -0.011753 0 2650 
2957 1 -0.00384449 0.00234872 -0.0124151 4.2e-05 0.0931185 -0.0545985 0.0471048 2650 
3956 1 -0.00897211 0.00263296 -0.0122779 0.000656 -0.000838464 -0.0112695 -0.000254236 2650 
3389 1 -0.010415 0.00330367 -0.012026 0.000116 0 -0.011753 0 2650 
1569 1 -0.00311348 0.00415794 -0.0124582 0.000423 -0.0214929 0.00568835 0.0411045 2650 
411 1 -0.00972231 0.00515899 -0.0120826 0.000116 -0.00787832 -0.00657823 -8.20909e-05 2650 
3826 1 -0.009208 0.00519867 -0.012552 0.000116 0 -0.011753 0 2650 
3316 1 -0.008979 0.00595167 -0.012376 0.000423 0 -0.011753 0 2650 
1261 1 -0.007462 0.00585567 -0.012403 0.000423 0 -0.011753 0 2650 
3362 1 -0.002672 0.00596467 -0.012199 0.000116 0 -0.011753 0 2650 
3446 1 -0.002592 0.00695867 -0.012627 0.000423 0 -0.011753 0 2650 
3030 1 -0.001189 0.00746167 -0.012596 0.000116 0 -0.011753 0 2650 
4318 1 -0.0080785 0.0083643 -0.012611 0.000423 -0.00589465 -0.00768269 0.00318441 2650 
2913 1 -0.00490347 0.00796591 -0.0119658 0.000116 -0.028239 -0.0119827 -0.0130286 2650 
191 1 -0.011348 0.00878267 -0.012254 0.000116 0 -0.011753 0 2650 
3847 1 -0.00973619 0.00938699 -0.0124051 0.000656 6.67707e-05 -0.0116743 2.1441e-05 2650 
1495 1 -0.004483 0.00892967 -0.012591 0.000116 0 -0.011753 0 2650 
1250 1 -0.007399 0.0101087 -0.012448 0.000423 0 -0.011753 0 2650 
3173 1 -0.004958 0.00959067 -0.012321 4.2e-05 0 -0.011753 0 2650 
2630 1 -0.001036 0.00979867 -0.012074 4.2e-05 0 -0.011753 0 2650 
4002 1 -0.000443 0.00962267 -0.01223 0.000116 0 -0.011753 0 2650 
70 1 -0.0105542 0.0106108 -0.0122111 0.000116 0.00881709 0.0274246 0.0240282 2650 
65 1 -0.009488 0.0110037 -0.011959 0.000116 0 -0.011753 0 2650 
4314 1 -0.00838202 0.0111423 -0.0119925 0.000423 -0.081014 -0.0186136 0.0169729 2650 
1423 1 -0.00145 0.0112787 -0.012526 4.2e-05 0 -0.011753 0 2650 
4257 1 -0.011422 0.0123434 -0.0122796 0.000116 0.0953599 0.0188051 -0.0292154 2650 
1578 1 -0.0107252 0.0126032 -0.0121892 0.000423 0.00693886 -0.000720995 0.0338186 2650 
1974 1 -0.00605956 0.0130803 -0.012301 4.2e-05 -0.0917311 0.0247116 0.0427267 2650 
2205 1 -0.0049275 0.013143 -0.0120735 0.000656 -0.00241752 0.00375043 0.00610124 2650 
1143 1 -0.00145812 0.0134632 -0.0119659 0.000423 0.00744219 0.00969658 -0.00437689 2650 
2250 1 -0.00843991 0.0146361 -0.0123949 0.000423 -0.0795114 0.075595 0.0420437 2650 
1254 1 -0.00554101 0.0204955 -0.0123103 0.000423 -0.0693317 0.161023 -0.144827 2650 
3679 1 -0.012092 -0.00275833 -0.011604 0.000116 0 -0.011753 0 2650 
2072 1 -0.009308 -0.00289633 -0.011721 0.000116 0 -0.011753 0 2650 
2166 1 -0.0092646 -0.0017089 -0.0117428 0.000116 -0.0143174 -0.0293231 -0.0106889 2650 
3505 1 -0.006952 -0.00180033 -0.011235 4.2e-05 0 -0.011753 0 2650 
1022 1 -0.002093 -0.00193033 -0.011454 0.000423 0 -0.011753 0 2650 
3960 1 -0.00868539 -0.00137781 -0.0117131 0.000423 -0.0011096 -0.0310235 -0.0206256 2650 
3191 1 -0.00603746 -0.000774022 -0.0117794 0.000656 -0.00833246 0.0061838 -0.01197 2650 
440 1 -0.00061 -0.000498327 -0.011485 4.2e-05 0 -0.011753 0 2650 
2817 1 -0.00198912 0.000373399 -0.0110809 0.000116 -0.0539328 -0.00567838 -0.0938536 2650 
3643 1 -0.00555891 0.00121706 -0.011658 0.000423 -0.0386014 -0.00662447 0.00484329 2650 
4215 1 -0.011184 0.00161067 -0.011524 0.000423 0 -0.011753 0 2650 
2279 1 -0.011345 0.00217367 -0.01145 0.000116 0 -0.011753 0 2650 
2579 1 -0.00872423 0.00174691 -0.0112075 0.000423 -0.000311164 -0.0069809 0.00202215 2650 
3535 1 -9.9e-05 0.00191367 -0.011488 0.000423 0 -0.011753 0 2650 
3894 1 -0.005583 0.00267267 -0.011098 0.000116 0 -0.011753 0 2650 
1063 1 -0.009531 0.00322767 -0.011683 0.000116 0 -0.011753 0 2650 
3383 1 -0.011681 0.00422267 -0.011229 0.000116 0 -0.011753 0 2650 
1657 1 -0.00923541 0.00452254 -0.0116854 0.000656 -0.0116375 -0.0115716 0.0121112 2650 
3542 1 -0.0037126 0.00453339 -0.0112804 0.000423 0.00241856 -0.00915467 -0.000529042 2650 
2294 1 -0.004894 0.00490867 -0.011565 0.000116 0 -0.011753 0 2650 
878 1 -0.003908 0.00539167 -0.011202 4.2e-05 0 -0.011753 0 2650 
708 1 -0.00252 0.00510467 -0.011391 0.000423 0 -0.011753 0 2650 
1822 1 -0.008034 0.00596167 -0.011166 0.000116 0 -0.011753 0 2650 
1758 1 -0.00201 0.00622267 -0.01144 4.2e-05 0 -0.011753 0 2650 
1215 1 -0.0103929 0.00638322 -0.0112919 0.000656 -0.0151247 -0.0120252 0.00241313 2650 
4027 1 -0.003218 0.00735367 -0.011075 0.000116 0 -0.011753 0 2650 
2409 1 -0.002586 0.00729267 -0.011527 4.2e-05 0 -0.011753 0 2650 
171 1 -0.00143647 0.00785402 -0.0110807 0.000116 0.0221612 -0.025445 0.125633 2650 
2798 1 -0.008755 0.00839267 -0.01131 0.000423 0 -0.011753 0 2650 
949 1 -0.00484237 0.00863415 -0.0111651 0.000116 -0.0176455 0.0180502 -0.0430698 2650 
1617 1 -0.00424 0.00928167 -0.011492 0.000116 0 -0.011753 0 2650 
3684 1 -0.00468683 0.0101734 -0.0115993 0.000116 0.00413104 -0.0230128 -0.00941473 2650 
3106 1 -0.0038071 0.0101421 -0.0113872 0.000423 -2.72641e-05 0.0166574 0.111537 2650 
233 1 -0.00488422 0.0109093 -0.0116393 0.000423 0.00253467 -0.0140185 -0.0192435 2650 
1663 1 -0.0099056 0.0114075 -0.0113028 0.000423 -0.00585048 -0.0195656 0.00569326 2650 
3145 1 -0.006381 0.0117447 -0.011273 0.000116 0 -0.011753 0 2650 
976 1 -0.005828 0.0131217 -0.011785 0.000116 0 -0.011753 0 2650 
963 1 -0.00127871 0.013112 -0.0114076 0.000116 -0.0711244 0.0115038 -0.119054 2650 
4160 1 -0.00936267 0.0136442 -0.0114695 4.2e-05 -0.100429 0.0333659 0.0668689 2650 
911 1 -0.0097835 0.0148523 -0.0113049 0.000423 -0.0526708 0.0464536 0.0089698 2650 
1381 1 -0.00770409 0.0155053 -0.0112755 0.000116 -0.000908202 0.0816555 0.108061 2650 
3784 1 -0.0104271 0.016936 -0.0116381 0.000116 0.0423878 0.0666065 0.0301123 2650 
2209 1 -0.0115278 0.0230416 -0.0115664 0.000656 0.226803 0.0818417 -0.197459 2650 
4373 1 -0.004239 -0.00253433 -0.010869 4.2e-05 0 -0.011753 0 2650 
3426 1 -0.0010398 -0.00281218 -0.0105319 0.000423 -0.00109119 -0.0119118 0.00171421 2650 
15 1 -0.001892 -0.00214333 -0.010407 0.000423 0 -0.011753 0 2650 
3093 1 -0.00290905 -0.000862484 -0.010837 0.000423 -0.000676928 -0.0109568 -0.00158381 2650 
2130 1 -0.000316 -0.00107933 -0.010491 0.000423 0 -0.011753 0 2650 
3673 1 -0.00271709 -3.38348e-05 -0.0108346 0.000423 0.000169124 -0.0108514 -9.18803e-05 2650 
3284 1 -0.001323 -2.43267e-05 -0.010635 4.2e-05 0 -0.011753 0 2650 
1193 1 -4.3e-05 -0.000513327 -0.010628 0.000116 0 -0.011753 0 2650 
369 1 -0.012277 0.000595469 -0.0109722 0.000423 0.0175486 -0.0220683 -0.100981 2650 
2022 1 -0.00555474 0.00024406 -0.0109739 0.000423 0.00555421 0.00115867 0.00414171 2650 
3530 1 -0.000573 0.000445673 -0.010526 0.000423 0 -0.011753 0 2650 
1452 1 -0.00104772 0.00138443 -0.0110464 0.000423 0.00554637 -0.012591 0.0031522 2650 
1233 1 -0.012882 0.00160467 -0.010287 0.000423 0 -0.011753 0 2650 
1468 1 -0.00254501 0.00234549 -0.0104156 0.000423 -0.0197001 -0.0470204 -0.0326717 2650 
497 1 -0.00574 0.00259867 -0.010398 0.000116 0 -0.011753 0 2650 
124 1 -0.005032 0.00250367 -0.01051 0.000423 0 -0.011753 0 2650 