ITEM: TIMESTEP
10139322
ITEM: NUMBER OF ATOMS
4338
ITEM: BOX BOUNDS ff ff ff
-0.15 0.15
-0.15 0.06
-0.15 0.15
ITEM: ATOMS id type x y z radius vx vy vz density 
739 1 -0.0709805 -0.0619409 -0.071272 0.000116 -11.4707 -0.00171354 -0.381671 2650 
3570 1 -0.0071409 -0.0559752 -0.0685134 0.000116 -7.94221 -0.100033 0.828899 2650 
1619 1 -0.0274455 -0.0529635 -0.063181 0.000116 -6.7921 -0.655579 2.94726 2650 
1753 1 -0.0386598 -0.0627782 -0.0629726 4.2e-05 -8.93997 -0.0211411 1.63436 2650 
3812 1 -0.0373561 -0.060163 -0.0578711 0.000116 -9.81079 -0.239611 6.33217 2650 
983 1 -0.0401919 -0.0623642 -0.0560342 4.2e-05 -8.88187 -0.0145679 6.3707 2650 
482 1 -0.0418791 -0.0602865 -0.0543055 0.000423 -5.64149 -0.0442456 4.34315 2650 
3943 1 -0.044214 -0.0509451 -0.0529177 4.2e-05 -4.77539 -0.13806 3.98996 2650 
2806 1 -0.0493049 -0.0450982 -0.0481042 0.000116 -5.27886 1.06489 5.4041 2650 
1945 1 -0.0501488 -0.0474011 -0.0472242 0.000116 -4.9731 -0.244935 5.26361 2650 
2201 1 -0.0626521 -0.0512556 -0.0273132 0.000656 -3.21994 0.0012385 7.30754 2650 
2857 1 -0.0637789 -0.046323 -0.0245667 0.000656 -2.76529 -0.0178893 7.18362 2650 
816 1 -0.0644879 -0.0465051 -0.0233297 0.000423 -2.2735 -0.581832 6.28088 2650 
3308 1 -0.0666796 -0.0482717 -0.0160232 0.000423 -1.68182 -0.331212 6.77311 2650 
3957 1 -0.0678003 -0.052461 0.00848493 0.000656 0.946069 -0.0412129 7.90477 2650 
3038 1 -0.0553948 -0.058059 0.0409435 0.000116 3.52997 0.0740962 4.778 2650 
3753 1 -0.0516962 -0.0520154 0.0450613 0.000423 4.66629 0.263968 5.35642 2650 
1135 1 -0.0289064 -0.0461731 0.0621828 0.000423 6.56671 -0.135169 3.01013 2650 
3331 1 -0.0268853 -0.0510075 0.0630881 0.000423 6.0773 0.267022 2.59837 2650 
4009 1 -0.00277466 -0.0542914 0.0688278 0.000116 6.07956 -0.363919 0.232061 2650 
939 1 -0.0690819 -0.0212883 -0.0720732 0.000116 -11.1376 -0.109583 -0.673139 2650 
327 1 -0.00546978 -0.0403277 -0.0687403 4.2e-05 -6.70909 -0.31672 0.527259 2650 
827 1 -0.00236266 -0.0309796 -0.0688409 0.000116 -7.19963 0.064686 0.218241 2650 
1852 1 -0.00108659 -0.0172679 -0.0688732 0.000116 -4.70806 -0.712292 0.0832159 2650 
2039 1 -0.0016145 -0.0132219 -0.0688622 0.000116 -6.22667 -0.0698835 0.169916 2650 
3930 1 -0.00281502 -0.0091475 -0.0688217 0.000116 -4.05677 0.617974 0.159437 2650 
1323 1 -0.00546663 -0.0294164 -0.0681278 0.000656 -7.45303 -0.0521354 0.614134 2650 
167 1 -0.0109739 -0.0268849 -0.0680043 0.000116 -6.94663 0.317173 1.12593 2650 
3005 1 -0.00956341 -0.0274867 -0.0679082 0.000423 -6.86354 0.0684446 0.966328 2650 
1990 1 -0.00728015 -0.0276143 -0.0679567 0.000656 -7.58694 -0.0302368 0.829753 2650 
4056 1 -0.00558659 -0.0271252 -0.0681186 0.000656 -7.58071 -0.0167727 0.635051 2650 
850 1 -0.00620156 -0.0268323 -0.0686037 0.000116 -7.58399 -0.0758547 0.689347 2650 
3960 1 -0.00606416 -0.0260443 -0.0683087 0.000423 -7.5321 0.015812 0.649594 2650 
3989 1 -0.00519759 -0.0259435 -0.0683808 0.000423 -7.533 -0.023472 0.564555 2650 
82 1 -0.00759251 -0.0248643 -0.0684638 0.000116 -6.50903 -0.0978752 0.725004 2650 
4286 1 -0.00157577 -0.0239726 -0.0685596 0.000423 -7.66989 -0.0227434 0.186008 2650 
1214 1 -0.0030039 -0.0232268 -0.0682791 0.000656 -7.51752 0.0163505 0.300943 2650 
518 1 -0.00639413 -0.019194 -0.0685865 0.000116 -5.98059 -1.60799 0.567778 2650 
3636 1 -0.00405627 -0.0193521 -0.0684572 0.000423 -8.13832 0.126378 0.468597 2650 
1798 1 -0.00229675 -0.0184763 -0.0685388 0.000423 -7.16127 -0.0810695 0.238628 2650 
971 1 -0.00751607 -0.011007 -0.0684737 0.000116 -5.81882 0.139896 0.638465 2650 
1734 1 -0.00581659 -0.00796078 -0.0686376 0.000116 -3.89984 0.00808622 0.399382 2650 
1378 1 -0.00535798 -0.0079088 -0.068672 0.000116 -6.82539 0.0610679 0.547306 2650 
3619 1 -0.0121058 -0.00405636 -0.0678869 4.2e-05 -5.94342 -0.17241 1.05455 2650 
3155 1 -0.00587473 -0.00184945 -0.0686322 0.000116 -6.93819 0.763973 0.602432 2650 
744 1 -0.0112845 -0.000720969 -0.067953 0.000116 -4.13293 0.900965 0.700568 2650 
4133 1 -0.0145931 -0.0402843 -0.0673206 0.000116 -7.0092 -0.286709 1.52086 2650 
1716 1 -0.0118134 -0.0303424 -0.0678638 0.000116 -7.79285 -0.090257 1.36186 2650 
2672 1 -0.0133043 -0.0270189 -0.0672755 0.000423 -7.58634 0.511397 1.48905 2650 
229 1 -0.0115733 -0.0239966 -0.0673589 0.000656 -6.76191 -0.0788517 1.14176 2650 
1417 1 -0.0120767 -0.0175654 -0.0678169 0.000116 -7.37895 -0.129667 1.309 2650 
416 1 -0.0136355 -0.0160044 -0.0675208 0.000116 -7.15606 0.0506068 1.44669 2650 
3873 1 -0.0107301 -0.00123505 -0.067733 0.000423 -5.98825 -0.117793 0.950025 2650 
2833 1 -0.0171563 -0.0349837 -0.0667131 0.000116 -6.80393 -0.422682 1.75027 2650 
758 1 -0.0170725 -0.0274563 -0.0667348 0.000116 -7.3554 0.180924 1.87113 2650 
2298 1 -0.0170879 -0.0271641 -0.0667309 0.000116 -7.31086 0.231914 1.86317 2650 
4213 1 -0.0150172 -0.0265403 -0.0669136 0.000423 -6.62099 -0.0666488 1.49941 2650 
3260 1 -0.018405 -0.0245369 -0.0663793 0.000116 -6.2353 0.250542 1.73092 2650 
1185 1 -0.0170918 -0.0249819 -0.0667293 0.000116 -7.18367 -0.54269 1.84138 2650 
3276 1 -0.0176506 -0.0236091 -0.0665842 0.000116 -7.21182 -0.424427 1.91022 2650 
3339 1 -0.0154015 -0.022242 -0.0668265 0.000423 -7.32158 -0.275074 1.68198 2650 
2386 1 -0.0168171 -0.0216082 -0.0667995 0.000116 -7.38645 -0.294031 1.85248 2650 
1609 1 -0.0189725 -0.0199624 -0.0666717 0.000116 -11.0101 0.860337 1.81406 2650 
1455 1 -0.017199 -0.0193674 -0.0663862 0.000423 -6.82824 0.133638 1.76721 2650 
426 1 -0.0182787 -0.0184422 -0.0664146 0.000116 -4.82994 0.829809 1.31097 2650 
4325 1 -0.0166712 -0.0184678 -0.0665211 0.000423 -7.25437 0.130127 1.82135 2650 
3337 1 -0.0152286 -0.0182501 -0.0668661 0.000423 -7.26157 0.0205949 1.67212 2650 
3963 1 -0.0147159 -0.0169987 -0.0669805 0.000423 -7.29885 0.0561535 1.59789 2650 
1079 1 -0.0180339 -0.0157175 -0.0664813 0.000116 -7.26654 0.54412 1.96976 2650 
3204 1 -0.0174017 -0.0157404 -0.0663334 0.000423 -7.39105 0.221521 1.93683 2650 
625 1 -0.0182233 -0.0141972 -0.0664295 0.000116 -7.18152 1.03777 1.962 2650 
538 1 -0.0166017 -0.0139512 -0.0668533 0.000116 -5.35202 0.544383 1.31158 2650 
2877 1 -0.0145163 -0.0102089 -0.0670246 0.000423 -6.75346 -0.027883 1.46572 2650 
955 1 -0.0169857 -0.000116032 -0.0667568 0.000116 -6.31538 -0.000133094 1.60695 2650 
800 1 -0.0194502 -0.0342288 -0.065762 0.000423 -5.32696 0.126465 1.5645 2650 
2055 1 -0.0190133 -0.0306494 -0.066208 0.000116 -6.54396 -0.29573 1.90403 2650 
4069 1 -0.0198143 -0.0270585 -0.0656531 0.000423 -6.62886 -0.00249273 2.02511 2650 
574 1 -0.0187153 -0.0276086 -0.0659746 0.000423 -6.8773 0.0437193 1.95412 2650 
1593 1 -0.0202842 -0.0254223 -0.0655096 0.000423 -6.85041 0.0543398 2.1325 2650 
4204 1 -0.0175449 -0.0231586 -0.0662952 0.000423 -7.37224 -0.36498 1.97119 2650 
1510 1 -0.0205805 -0.021861 -0.0657374 0.000116 -6.81319 0.653373 2.13523 2650 
2117 1 -0.0177179 -0.0220923 -0.0662498 0.000423 -7.05283 -0.204759 1.90801 2650 
1436 1 -0.0173121 -0.0208576 -0.0661179 0.000656 -7.13157 -0.0802488 1.86024 2650 
3605 1 -0.0206356 -0.018876 -0.0657134 0.000116 -5.91904 -1.08643 1.88535 2650 
2680 1 -0.0202084 -0.018018 -0.0655243 0.000423 -6.13964 0.103495 1.87452 2650 
338 1 -0.0175728 -0.016786 -0.0660487 0.000656 -6.65095 -0.0498455 1.77208 2650 
375 1 -0.0198623 -0.0156637 -0.0656324 0.000423 -5.12885 -0.058261 1.5008 2650 
3786 1 -0.0201391 -0.00954491 -0.0658574 0.000116 -5.86939 -0.164243 1.69805 2650 
1938 1 -0.0208671 -0.00943581 -0.065619 0.000116 -4.74144 0.065054 1.45533 2650 
3093 1 -0.0164419 -0.00811441 -0.0658843 0.000423 -3.5018 -0.41577 3.38127 2650 
4285 1 -0.0177205 -0.00682681 -0.066249 0.000423 -4.15518 -0.381221 1.08464 2650 
872 1 -0.0200607 -0.00181858 -0.0659686 4.2e-05 -6.41982 0.0455953 1.91749 2650 
1447 1 -0.0224347 -0.0282004 -0.0648045 0.000423 -6.72374 -0.266356 2.34472 2650 
2591 1 -0.0219665 -0.0168394 -0.0652836 0.000116 -6.11933 0.0803207 1.99636 2650 
3807 1 -0.0218219 -0.0154449 -0.0653241 0.000116 -3.03086 -0.545404 1.01195 2650 
3580 1 -0.0225246 -0.0136862 -0.0650808 0.000116 -6.6722 0.707784 2.38141 2650 
3920 1 -0.0213606 -0.0115847 -0.0654574 0.000116 -5.13459 0.251435 1.66989 2650 
306 1 -0.0216539 -0.000116036 -0.0653917 0.000116 -6.14537 0.000892349 2.03363 2650 
2048 1 -0.0240283 -0.0207615 -0.0645574 0.000116 -6.53891 0.925094 2.43939 2650 
2728 1 -0.0238816 -0.0107054 -0.0646042 0.000116 -5.88933 0.00734912 2.11981 2650 
3516 1 -0.0254543 -0.0383245 -0.0634292 0.000656 -7.43345 0.0456745 2.99352 2650 
1493 1 -0.0269122 -0.0326761 -0.0634099 0.000116 -5.48526 -0.59205 2.32633 2650 
390 1 -0.0271366 -0.0250406 -0.0633136 0.000116 -6.24748 -0.192038 2.6733 2650 
2765 1 -0.0279898 -0.0402446 -0.0626057 0.000423 -6.56175 -0.0499685 2.92435 2650 
2819 1 -0.0282171 -0.0318055 -0.0628402 0.000116 -6.78361 -1.54871 3.0445 2650 
3881 1 -0.028081 -0.0281604 -0.0625653 0.000423 -6.36315 -0.0675773 2.87738 2650 
2895 1 -0.028128 -0.0221798 -0.0625442 0.000423 -6.72636 0.0152579 3.02017 2650 
341 1 -0.027063 -0.0221515 -0.0627602 0.000656 -6.74469 0.0257531 2.92435 2650 
1082 1 -0.029096 -0.0117473 -0.0624379 0.000116 -3.12043 -0.17348 1.53627 2650 
2329 1 -0.0278244 -0.0013054 -0.0626793 0.000423 -4.75148 -0.161883 2.11948 2650 
4016 1 -0.029467 -0.0370369 -0.0622629 0.000116 -7.31771 -0.336233 3.47046 2650 
1957 1 -0.0293686 -0.0228927 -0.062309 0.000116 -6.24307 0.298195 2.94074 2650 
2589 1 -0.0296583 -0.020597 -0.0621729 0.000116 -7.30685 0.26739 3.48631 2650 
2 1 -0.028691 -0.020927 -0.0620317 0.000656 -7.09689 -0.105946 3.28317 2650 
1458 1 -0.0331708 -0.023136 -0.0600212 0.000423 -6.52134 0.243085 3.59574 2650 
575 1 -0.0340922 -0.0364195 -0.0594995 0.000423 -6.00977 0.0312483 3.45301 2650 
3018 1 -0.0345206 -0.0329105 -0.0592545 0.000423 -6.22435 -0.0931455 3.55281 2650 
3649 1 -0.033441 -0.0247339 -0.0598718 0.000423 -6.38468 -0.163749 3.57871 2650 
4376 1 -0.0359351 -0.0282594 -0.0588469 4.2e-05 -6.92689 -0.773972 4.27228 2650 
3137 1 -0.0372907 -0.0017144 -0.0579172 0.000116 -4.54442 0.106993 2.90865 2650 
2421 1 -0.0369205 -0.0294762 -0.0574928 0.000656 -6.29897 0.0495662 3.97315 2650 
2691 1 -0.0378472 -0.0289618 -0.0571492 0.000423 -6.22579 0.0950116 4.10603 2650 
200 1 -0.0379634 -0.00559822 -0.0574781 0.000116 -5.63932 -0.180322 3.72814 2650 
4138 1 -0.0392404 -0.038254 -0.0566046 0.000116 -5.11586 0.052608 3.53801 2650 
1869 1 -0.0392796 -0.0159814 -0.056647 4.2e-05 -5.57596 -1.28082 3.7743 2650 
2976 1 -0.0385739 -0.0156028 -0.0564198 0.000656 -4.85368 0.0979684 3.33245 2650 
91 1 -0.0393235 -0.0128044 -0.0565565 0.000116 -5.45947 0.133256 3.78947 2650 
1757 1 -0.0407194 -0.0217202 -0.0556503 4.2e-05 -5.59802 -0.126727 4.10575 2650 
2717 1 -0.040887 -0.0153596 -0.0554371 0.000116 -3.8071 -1.56092 2.82624 2650 
831 1 -0.0407912 -0.0111783 -0.0555072 0.000116 -4.40091 -0.742819 3.2386 2650 
626 1 -0.0405495 -0.00474201 -0.0556845 0.000116 -3.23859 0.00989452 2.35491 2650 
1197 1 -0.0403672 -0.00485613 -0.0558162 0.000116 -3.24854 -0.00868316 2.34271 2650 
443 1 -0.041164 -0.0314789 -0.0545596 0.000656 -5.62238 -0.0223772 4.21716 2650 
1218 1 -0.040281 -0.0178114 -0.0552149 0.000656 -5.52744 -0.178744 4.044 2650 
259 1 -0.041248 -0.0173432 -0.0547868 0.000423 -5.49544 -0.106146 4.11848 2650 
1443 1 -0.0414105 -0.0135337 -0.0546635 0.000423 -5.03158 0.131676 3.80007 2650 
1433 1 -0.0418998 -0.0262351 -0.0539956 0.000656 -5.73435 0.00675273 4.45069 2650 
1523 1 -0.0427867 -0.00480278 -0.0539842 0.000116 -4.76754 -0.407543 3.77438 2650 
1239 1 -0.0430328 -0.0443334 -0.053396 0.000423 -6.60919 0.0842716 5.33666 2650 
4094 1 -0.0433549 -0.0294174 -0.0531346 0.000423 -5.35317 -0.119994 4.35484 2650 
681 1 -0.0436063 -0.0250771 -0.0529282 0.000423 -5.4683 -0.0269816 4.51439 2650 
1424 1 -0.0441945 -0.0195651 -0.0529341 4.2e-05 -4.00779 1.32096 3.3624 2650 
2254 1 -0.0440741 -0.027042 -0.0525397 0.000423 -5.47483 0.117407 4.58329 2650 
2275 1 -0.0444143 -0.00594778 -0.0526534 0.000116 -4.73747 0.45485 4.00212 2650 
3353 1 -0.0452999 -0.0244993 -0.0518932 0.000116 -5.51912 0.387745 4.83366 2650 
2340 1 -0.0446615 -0.0247816 -0.0520413 0.000423 -5.52294 0.227274 4.74738 2650 
1733 1 -0.0458872 -0.0143851 -0.051375 0.000116 -4.62459 1.17785 4.12401 2650 
1042 1 -0.0457924 -0.0390066 -0.0510488 0.000423 -5.18244 -0.0462543 4.6451 2650 
908 1 -0.0455989 -0.0293859 -0.0512226 0.000423 -5.39976 -0.00997901 4.81295 2650 
1304 1 -0.0461433 -0.0104461 -0.0511455 0.000116 -4.33865 -0.208328 3.90853 2650 
2732 1 -0.0467387 -0.00983103 -0.0506023 0.000116 -5.11066 -0.343808 4.74679 2650 
1961 1 -0.0467695 -0.000688376 -0.0505727 0.000116 -4.82896 0.0850285 4.47898 2650 
132 1 -0.0472174 -0.0291325 -0.0497344 0.000423 -5.14845 -0.0759415 4.85811 2650 
1922 1 -0.0464451 -0.0181666 -0.0504558 0.000423 -4.3054 -0.0534856 3.9377 2650 
3387 1 -0.0483295 -0.0358273 -0.0490845 0.000116 -4.60534 -0.0158281 4.52505 2650 
3864 1 -0.0492304 -0.0266597 -0.0477427 0.000423 -4.81177 -0.181404 4.96373 2650 
4098 1 -0.048873 -0.0256474 -0.0481074 0.000423 -4.38368 -0.101694 4.46141 2650 
2057 1 -0.0496294 -0.0183804 -0.0477691 0.000116 -4.64425 0.525617 4.81616 2650 
2965 1 -0.0495625 -0.015494 -0.0479446 4.2e-05 -3.76169 -0.0695967 3.88187 2650 
3440 1 -0.0502335 -0.0449211 -0.0466853 0.000423 -6.23298 -0.0831931 6.70218 2650 
2203 1 -0.0496132 -0.0239269 -0.0470062 0.000656 -4.88238 -0.0412121 5.14121 2650 
2964 1 -0.050404 -0.0060148 -0.0470579 4.2e-05 -5.09212 0.505764 5.44727 2650 
2103 1 -0.0507425 -0.0224208 -0.0461321 0.000423 -4.57394 0.0963355 5.12332 2650 
4116 1 -0.0515817 -0.0334338 -0.0456498 0.000116 -4.57756 0.482224 5.12639 2650 
4037 1 -0.0524094 -0.0314556 -0.0446968 0.000116 -4.25051 -0.659097 5.01176 2650 
3095 1 -0.0518988 -0.0200618 -0.0448272 0.000423 -5.11359 0.224653 5.9044 2650 
1407 1 -0.053034 -0.015692 -0.0439544 0.000116 -4.67544 0.937297 5.67267 2650 
2601 1 -0.054079 -0.0196306 -0.0426669 0.000116 -6.22283 0.102131 7.88983 2650 
3483 1 -0.0536938 -0.000949627 -0.0431498 0.000116 -2.27549 0.201732 2.86946 2650 
379 1 -0.0538776 -0.0315583 -0.0424128 0.000423 -4.20477 0.230688 5.36362 2650 
4263 1 -0.0546173 -0.00466976 -0.0420888 4.2e-05 -2.31697 -0.0185282 2.98664 2650 
1781 1 -0.0547239 -0.0407694 -0.041331 0.000423 -4.55153 -0.0154127 6.02961 2650 
2574 1 -0.0543749 -0.0274339 -0.0417719 0.000423 -3.62418 -0.325867 4.50597 2650 
2151 1 -0.0552864 -0.00277328 -0.0410903 0.000116 -3.93627 0.528806 5.24027 2650 
3966 1 -0.05525 -0.024611 -0.0406175 0.000423 -3.51766 0.0634033 4.69259 2650 
1630 1 -0.055872 -0.00579104 -0.0402426 0.000116 -3.34454 0.224806 4.72281 2650 
3088 1 -0.0559168 -0.035258 -0.0396648 0.000423 -3.80663 0.0681896 5.48193 2650 
3210 1 -0.0558043 -0.0209264 -0.0398597 0.000423 -3.61664 0.560031 5.08423 2650 
1453 1 -0.0563943 -0.0349688 -0.0390085 0.000423 -3.72215 0.170244 5.51997 2650 
159 1 -0.0238993 -0.0151755 -0.0368395 0.000423 -3.48892 -1.05729 -5.36786 2650 
50 1 -0.0583637 -0.0271522 -0.0360079 0.000423 -3.1555 -0.116732 5.14162 2650 
835 1 -0.0594498 -0.0383496 -0.0347953 0.000116 -4.43284 -0.0430399 7.58288 2650 
3693 1 -0.0594944 -0.0104529 -0.03472 0.000116 -1.65936 -0.232034 2.89691 2650 
3508 1 -0.0592689 -0.00806483 -0.035247 4.2e-05 -1.70548 -0.143192 2.8591 2650 
4173 1 -0.0589241 -0.0355436 -0.0346264 0.000656 -2.86732 0.168049 4.9226 2650 
4139 1 -0.0595204 -0.0277489 -0.034675 0.000116 -3.30259 0.310857 5.64731 2650 
1213 1 -0.0594039 -0.0229757 -0.0337987 0.000656 -3.48963 0.0554152 6.11453 2650 
1356 1 -0.0599802 -0.0191284 -0.0332447 0.000423 -3.5409 0.0995781 6.34823 2650 
3683 1 -0.0602441 -0.0183424 -0.0334011 0.000116 -3.44284 -0.198413 6.201 2650 
114 1 -0.0599534 -0.0306751 -0.0328169 0.000656 -3.46591 -0.0784826 6.33597 2650 
1343 1 -0.060167 -0.02015 -0.032908 0.000423 -3.64817 -0.0414781 6.7572 2650 
507 1 -0.0606635 -0.0179267 -0.0326333 0.000116 -2.23157 0.538914 4.18999 2650 
2928 1 -0.060701 -0.0172055 -0.0325635 0.000116 -3.00524 0.49375 5.59219 2650 
394 1 -0.0611557 -0.0206314 -0.031702 0.000116 -2.587 0.363165 4.99379 2650 
299 1 -0.0615815 -0.00781222 -0.0308676 0.000116 -3.10454 -0.13037 6.20425 2650 
4149 1 -0.0617552 -0.0133721 -0.0305178 0.000116 -2.14877 -0.440656 4.36926 2650 
871 1 -0.0621925 -0.027033 -0.0297877 4.2e-05 -1.78789 -0.489407 3.70622 2650 
2413 1 -0.0622826 -0.0150433 -0.0295988 4.2e-05 -1.7127 0.133639 3.5458 2650 
2350 1 -0.0630365 -0.0302917 -0.027009 0.000423 -2.75306 -0.309612 6.38675 2650 
2703 1 -0.0634181 -0.0220516 -0.0268911 0.000116 -2.61037 0.232558 6.12897 2650 
4362 1 -0.0634063 -0.00638688 -0.0269197 0.000116 -1.32829 -0.172203 3.09686 2650 
1475 1 -0.0636284 -0.028728 -0.0255801 0.000423 -2.32683 -0.0652379 5.78963 2650 
1604 1 -0.0641416 -0.000116062 -0.0251165 0.000116 -2.92572 -0.00110435 7.47716 2650 
3519 1 -0.0644309 -0.0445006 -0.0227986 0.000656 -2.71609 0.0943829 7.70485 2650 
163 1 -0.0650754 -0.0307944 -0.0216157 0.000423 -2.24448 0.112564 6.6984 2650 
107 1 -0.0653658 -0.0133929 -0.0219283 4.2e-05 -1.8917 -0.543038 5.59383 2650 
437 1 -0.0655817 -0.0102608 -0.021289 4.2e-05 -2.10527 0.0627619 6.50993 2650 
3043 1 -0.0654306 -0.00217709 -0.0215294 0.000116 -1.82519 -0.636709 5.48518 2650 
2679 1 -0.0654493 -0.0347743 -0.0204708 0.000423 -2.12878 0.0859121 6.77481 2650 
3505 1 -0.0656338 -0.0160422 -0.0211311 4.2e-05 -1.96023 -1.62875 6.05184 2650 
3647 1 -0.0652284 -0.0128338 -0.0211349 0.000423 -1.83145 -0.0312312 5.78538 2650 
1481 1 -0.0655742 -0.0326704 -0.0200545 0.000423 -2.14225 0.0962333 6.73226 2650 
759 1 -0.0660016 -0.00101801 -0.0197147 0.000116 -1.89099 -0.265798 6.37732 2650 
3779 1 -0.0662443 -0.0426711 -0.0177366 0.000423 -2.30103 -0.0183885 8.57026 2650 
2436 1 -0.0665255 -0.0323541 -0.0166483 0.000423 -1.73134 -0.193911 6.88485 2650 
1601 1 -0.0667381 -0.0297389 -0.0170561 0.000116 -1.58741 0.289577 6.7844 2650 
606 1 -0.000183 0.00152369 -0.016592 0.000116 0 -0.011753 0 2650 
2520 1 -0.000270233 0.00489038 -0.0167418 4.2e-05 0.00318265 0.000380138 0.00682554 2650 
2182 1 -0.00155776 0.0130184 -0.0166114 0.000116 -0.00770269 0.0448602 -0.0445042 2650 
3165 1 -0.00121583 0.0169319 -0.0167297 0.000116 -0.258104 0.163914 -0.00964274 2650 
1175 1 -0.0670169 -0.0310753 -0.0159278 0.000116 -1.2706 0.0145081 5.3317 2650 
3135 1 -0.0670158 -0.0249185 -0.0159311 0.000116 -1.29168 0.239298 5.39162 2650 
2013 1 -0.00296936 0.00305598 -0.0158983 0.000423 -0.00154235 0.00221798 0.00156406 2650 
2301 1 -0.00431604 0.00353369 -0.0161465 4.2e-05 -0.00116259 -0.0070103 0.00459775 2650 
1679 1 -0.00417626 0.00461601 -0.0158214 0.000423 -0.00453172 0.0157125 0.00260684 2650 
2283 1 -0.00352763 0.00430579 -0.0163951 0.000116 -0.00010552 0.00956354 0.000789399 2650 
4227 1 -0.000473896 0.00401274 -0.0165768 0.000116 0.00143204 -0.0228975 -0.0290312 2650 
3365 1 -0.00201294 0.00528903 -0.0157964 0.000116 0.0120999 0.0333262 -0.0498495 2650 
3934 1 -0.001977 0.00628569 -0.016218 0.000116 0 -0.011753 0 2650 
978 1 -0.00254334 0.00633192 -0.0163918 0.000116 0.0180122 -0.00353228 -0.00159853 2650 
938 1 -0.00149789 0.00991715 -0.0158674 0.000116 -0.00119823 0.000558801 -0.00633771 2650 
302 1 -0.000601604 0.00956041 -0.0161227 0.000116 -0.0434127 0.0256721 -0.0191129 2650 
1483 1 -0.000469104 0.0102374 -0.0164202 0.000423 -0.00134867 0.0112238 -0.0085204 2650 
3007 1 -0.00274067 0.0111997 -0.0159619 0.000423 -0.00754521 0.0118776 -0.00214285 2650 
371 1 -0.000367997 0.01163 -0.0162473 0.000423 0.00531915 0.0198137 0.0114896 2650 
188 1 -0.00276945 0.0129382 -0.0162392 0.000116 -0.0148612 0.0228045 0.00418427 2650 
2713 1 -0.000712811 0.0149471 -0.0160436 0.000116 0.00037122 0.035974 0.00535071 2650 
940 1 -0.0671109 -0.0208301 -0.0155277 0.000116 -1.41793 0.143084 6.09711 2650 
2259 1 -0.0671983 -0.0133351 -0.0151456 0.000116 -1.12371 -0.214062 5.00412 2650 
4020 1 -0.0671727 -0.00330968 -0.0152582 0.000116 -1.21688 -0.0510439 5.34429 2650 
1763 1 -0.00424756 -0.00184332 -0.015149 0.000656 0.0110508 0.03864 0.047043 2650 
30 1 -0.00189295 -0.00177482 -0.0156218 0.000423 -0.0139928 -0.0214008 0.00726417 2650 
3599 1 -0.000933751 -0.00158535 -0.0152845 0.000116 0.0260231 -0.00977207 -0.00117121 2650 
2399 1 -0.002418 0.00173769 -0.015541 0.000116 0 -0.011753 0 2650 
2474 1 -0.000456862 0.00230181 -0.0152561 0.000423 0.0307748 -0.0136667 -0.043701 2650 
3637 1 -0.00524463 0.00392499 -0.0154708 0.000423 -0.00704251 0.0124689 0.006236 2650 
1611 1 -0.00283355 0.00462867 -0.0157203 0.000116 0.0513704 -0.0152435 0.0155029 2650 
889 1 -0.00186875 0.00423616 -0.0153897 0.000656 0.0239239 0.0130736 -0.0545072 2650 
1192 1 -0.00736679 0.0060755 -0.0151369 0.000116 0.00510585 0.0133553 0.012363 2650 
3830 1 -0.006879 0.00783769 -0.015411 4.2e-05 0 -0.011753 0 2650 
2438 1 -0.00611034 0.0072541 -0.0151205 0.000423 -0.00468347 -0.000292455 -0.00123863 2650 
2726 1 -0.000355018 0.00886492 -0.0150979 0.000116 -0.00741369 0.00988612 -0.041436 2650 
2781 1 -0.00600735 0.0110187 -0.0151794 0.000423 0.00977627 0.0105103 0.0120467 2650 
3150 1 -0.00172887 0.0103325 -0.0151815 0.000116 -0.0182263 -0.0087302 -0.0269448 2650 
70 1 -0.00404201 0.0123973 -0.0157079 0.000116 0.0560864 0.0328811 0.00597028 2650 
2793 1 -0.00102507 0.0125485 -0.0152155 0.000423 0.00400332 0.0260717 0.000754087 2650 
3644 1 -0.00122193 0.0134715 -0.0150696 0.000423 -0.00424564 0.0328325 0.0133159 2650 
93 1 -0.0072794 0.0189791 -0.0151941 0.000116 0.0683401 0.0488097 -0.0337926 2650 
2466 1 -0.00452545 0.0218587 -0.0152788 0.000423 0.0618857 0.0331724 -0.00268308 2650 
2585 1 -0.00125718 0.0255482 -0.0151687 0.000116 -0.0221426 0.0759057 0.0070692 2650 
1717 1 -0.00362375 0.0289786 -0.0151328 0.000116 -0.014717 0.0706098 -0.0348682 2650 
4234 1 -0.00494098 0.032648 -0.015287 0.000116 0.00512064 0.0508026 0.0366661 2650 
4142 1 -0.0673902 -0.0225629 -0.0142667 0.000116 -1.29295 0.393844 6.10769 2650 
2001 1 -0.0670327 -0.0125696 -0.0144765 0.000423 -1.07909 -0.20345 5.04839 2650 
4244 1 -0.00216529 -0.00291346 -0.0145007 0.000116 -0.0436806 -0.00994679 0.0125723 2650 
1053 1 -0.007469 -0.00210431 -0.014946 0.000116 0 -0.011753 0 2650 
736 1 -0.00780579 -0.00130383 -0.0145581 0.000116 -0.0307431 -0.0170391 0.0144389 2650 
3576 1 -0.00211442 -0.00141821 -0.0146401 0.000116 0.0561059 0.00120064 -0.0311085 2650 
509 1 -0.00771175 -0.000615534 -0.0144973 0.000116 -0.00480979 -0.0076817 0.0108723 2650 
857 1 -0.00583316 0.00287485 -0.0148419 0.000116 -0.0623021 0.0193526 0.00200378 2650 
4300 1 -0.000108896 0.00406756 -0.014824 0.000423 0.0101839 0.00179298 -0.0226263 2650 
581 1 -0.00561131 0.00807645 -0.0144993 0.000423 0.000441693 0.00100922 0.00165067 2650 
1827 1 -0.00414412 0.00841484 -0.0142267 0.000116 0.0445821 -0.0304485 -0.00868089 2650 
233 1 -0.00365958 0.00893366 -0.0147438 0.000423 0.00841442 -0.00267664 0.00454736 2650 
86 1 -0.00450048 0.0105707 -0.0149558 0.000116 -0.0196067 0.0126222 0.000798653 2650 
3500 1 -0.00415186 0.0107808 -0.0142706 4.2e-05 -0.0484689 0.00233787 0.0298831 2650 
2969 1 -0.00247037 0.0105895 -0.014978 0.000656 -0.00667616 0.014076 0.00443217 2650 
3838 1 -0.00533768 0.013382 -0.0144712 0.000656 0.0059045 0.0308137 -0.0288407 2650 
1228 1 -0.00213434 0.0128585 -0.0148405 0.000423 -0.0165199 0.0339339 0.00467854 2650 
2924 1 -0.00781648 0.0158974 -0.0147311 0.000116 -0.0500795 0.0331408 0.0243033 2650 
3051 1 -0.007145 0.0207643 -0.0148534 0.000116 0.128093 -0.215655 -0.111448 2650 
1195 1 -0.00456305 0.0329333 -0.0145846 0.000116 0.0557766 0.0782116 -0.0138054 2650 
66 1 -0.00790454 0.0339389 -0.0149349 0.000116 -0.20355 -0.0161115 0.0834683 2650 
3588 1 -0.0038096 0.0425122 -0.0142444 0.000116 0.181107 0.0152304 0.0217687 2650 
4010 1 -0.00694733 0.0435083 -0.014391 0.000116 0.0373387 0.0604042 0.0259593 2650 
2863 1 -0.00174676 0.0538733 -0.0149627 0.000656 0.0828395 0.112062 0.0238951 2650 
3154 1 -0.0675072 -0.0444357 -0.0136865 0.000116 -1.1474 1.14358 5.57537 2650 
3426 1 -0.0672056 -0.0307492 -0.0136484 0.000423 -1.32068 -0.0898564 6.54169 2650 
4007 1 -0.0674779 -0.0155997 -0.0138461 0.000116 -0.648342 -0.404408 3.32017 2650 
3011 1 -0.000923905 -0.00169104 -0.0137925 0.000423 0.0180353 -0.0317081 -0.0392676 2650 
2666 1 -0.00601977 -0.000596617 -0.0140729 0.000423 -0.121399 0.140339 -0.0161279 2650 
1991 1 -0.00792609 0.000234542 -0.0140287 0.000656 -0.019376 -0.00203791 0.00870126 2650 
161 1 -1.29356e-05 0.000124617 -0.0140985 0.000423 0.0169113 0.00636159 -0.0425513 2650 
2609 1 -0.0082766 0.000852246 -0.0136946 0.000116 0.0165148 -0.0225508 -0.0126409 2650 
2922 1 -0.00787356 0.00134145 -0.0134926 0.000116 -0.00925852 -0.000802711 0.00675368 2650 
3239 1 -0.00692745 0.000921705 -0.0139979 0.000116 -0.0248133 -0.00752354 0.0120924 2650 
2473 1 -0.00865767 0.00170255 -0.0138177 0.000423 0.0164368 -0.00639214 -0.0235738 2650 
2913 1 -0.00944832 0.00365952 -0.0136762 0.000116 -0.0031719 -0.0208365 0.00893463 2650 
220 1 -0.00335793 0.0035125 -0.0139063 4.2e-05 0.00197382 0.00663681 0.00671825 2650 
3787 1 -0.00678037 0.00403076 -0.0140333 0.000116 -0.0024271 -0.00223267 -0.0195234 2650 
1388 1 -0.00641103 0.00551106 -0.0135989 0.000116 -0.039288 0.0021603 0.0169103 2650 
1288 1 -0.002467 0.00546669 -0.014044 0.000116 0 -0.011753 0 2650 
3515 1 -0.00840961 0.00659495 -0.0137814 0.000656 -0.00454215 -0.00749919 0.00616721 2650 
1618 1 -0.00964386 0.00756547 -0.0137419 0.000116 0.0059414 0.00192455 -0.00369393 2650 
1769 1 -0.0083663 0.00809265 -0.013913 0.000656 -0.0137362 -0.00803998 0.00121316 2650 
3364 1 -0.00673505 0.00808915 -0.0141 0.000116 -0.00179506 0.0163753 -0.0232219 2650 
4368 1 -0.000697944 0.008637 -0.0134216 0.000116 0.0213285 8.20602e-05 -0.0260591 2650 
4190 1 -0.00906318 0.00922072 -0.0137619 0.000423 -0.00788233 0.00684233 0.00501954 2650 
842 1 -0.00744732 0.0088826 -0.0134967 0.000116 -0.0132472 -0.000581938 -0.0143857 2650 
2092 1 -0.00672523 0.00925484 -0.0134836 0.000656 -0.000409162 0.00160139 0.0230931 2650 
2313 1 -0.00318387 0.00916265 -0.0136201 0.000656 0.0129983 0.0241547 0.0127298 2650 
1409 1 -0.00044 0.00924669 -0.013868 0.000116 0 -0.011753 0 2650 
1476 1 -0.0075017 0.010013 -0.0134254 0.000423 -0.00236736 0.00331055 0.000231161 2650 
289 1 -0.00333676 0.00974928 -0.0141522 0.000116 -0.00850769 0.000708308 0.0302001 2650 
2453 1 -0.00604491 0.0115414 -0.0137613 0.000423 0.00287214 0.0261989 -0.0126472 2650 
1802 1 -0.00338918 0.012404 -0.0137272 0.000423 0.00500259 -0.000364755 -0.0111755 2650 
2191 1 -0.00179248 0.0132132 -0.0136317 4.2e-05 -0.0219515 0.010649 -0.0334451 2650 
128 1 -0.00040936 0.0130173 -0.0134877 0.000423 -0.0151911 0.0337573 -0.0149348 2650 
3163 1 -0.00816713 0.0135028 -0.0136227 0.000116 0.00944139 0.0175584 0.0253463 2650 
3145 1 -0.00860095 0.0140253 -0.0137138 0.000116 -0.0186098 0.0309384 -0.020461 2650 
3471 1 -0.00762556 0.013579 -0.0134573 0.000116 0.00654915 0.0415659 -0.0136084 2650 
949 1 -0.00912011 0.0153634 -0.0135481 0.000116 0.00609202 0.0335108 0.0318859 2650 
1839 1 -0.0051718 0.015741 -0.0141557 0.000116 -0.0676852 0.0211351 0.0188737 2650 
3820 1 -0.000652252 0.0526686 -0.0136541 0.000116 0.00708078 0.241917 -0.0365799 2650 
3366 1 -0.0675948 -0.0359725 -0.013264 0.000116 -1.34828 -0.322078 6.85387 2650 
103 1 -0.0677488 -0.0216139 -0.0128562 4.2e-05 -1.19319 -0.0339762 6.22731 2650 
2332 1 -0.00616407 -0.000957732 -0.0130371 0.000423 -0.0817214 -0.0123627 0.0558782 2650 
3191 1 -0.00974451 -0.000783887 -0.012999 0.000656 -0.00555719 -0.00635765 0.0118908 2650 
2525 1 -0.004063 -0.00030631 -0.013231 4.2e-05 0 -0.011753 0 2650 
4126 1 -0.00841141 0.00130288 -0.0127036 0.000116 -0.0261531 0.0084042 0.00402279 2650 
3316 1 -0.00996694 0.00212429 -0.0130995 0.000423 -0.00357171 -0.016912 0.00734636 2650 
2512 1 -0.00692723 0.00168135 -0.0133516 0.000116 0.018779 -0.0192413 0.00230208 2650 
3917 1 -0.003984 0.00199469 -0.012703 0.000116 0 -0.011753 0 2650 
2059 1 -0.003583 0.00220369 -0.012756 0.000116 0 -0.011753 0 2650 
763 1 -0.00696522 0.00388638 -0.0133761 4.2e-05 -0.0107376 -0.0192397 -0.014763 2650 
1032 1 -0.00478607 0.00339141 -0.0128333 0.000423 0.0140776 0.00865188 0.010778 2650 
3446 1 -0.000374233 0.00355928 -0.0133002 0.000423 0.016221 -0.0142776 -0.00742368 2650 
150 1 -0.0101854 0.00419621 -0.0129084 0.000423 -0.0332403 0.0236354 0.0259176 2650 
1427 1 -0.002948 0.00453469 -0.013376 4.2e-05 0 -0.011753 0 2650 
3362 1 -0.002612 0.00472982 -0.0128907 0.000116 0.000350619 -0.00253681 -0.00404217 2650 
2322 1 -0.00916229 0.00545542 -0.0133053 0.000656 -0.00463581 -0.0140818 0.00324309 2650 
4179 1 -0.0081326 0.00559894 -0.012921 0.000423 -0.000889884 -0.0208242 0.00186897 2650 
2918 1 -0.00643817 0.006925 -0.0132337 0.000116 0.0149777 0.0131491 0.0124233 2650 
963 1 -0.0068671 0.00689967 -0.0131242 0.000116 0.00350227 -0.00324664 0.0156587 2650 
2912 1 -0.00535305 0.00687408 -0.0130807 0.000116 0.00196064 0.0151142 0.00117299 2650 
1250 1 -0.00909765 0.00746183 -0.0133624 0.000423 -0.0126021 -0.0099031 0.00355829 2650 
4257 1 -0.00825848 0.0073858 -0.0130045 0.000116 -0.00578911 -0.00907208 0.00958653 2650 
2483 1 -0.00607589 0.00796317 -0.0130293 0.000116 0.0222317 -0.00887276 -0.000700143 2650 
1237 1 -0.00962028 0.00955965 -0.0131883 0.000423 -0.00626746 0.00986586 0.00606863 2650 
1775 1 -0.00832428 0.0100809 -0.0131547 0.000423 -0.00708489 -0.00951521 0.00065803 2650 
3847 1 -0.00934829 0.01077 -0.0133012 0.000656 0.00598667 0.0140257 0.000109329 2650 
2094 1 -0.0101652 0.0117567 -0.0127882 0.000656 -0.0146614 0.00355759 -0.0161857 2650 
2798 1 -0.00670374 0.0120834 -0.0128641 0.000423 0.00307291 0.0287307 -0.0047091 2650 
2205 1 -0.0054225 0.0132935 -0.012685 0.000656 -0.00206311 0.000112593 -0.00429342 2650 
2345 1 -0.0012022 0.0133418 -0.0129303 0.000423 -0.01463 0.0130244 -0.0295387 2650 
1617 1 -0.000184637 0.0135431 -0.0130572 0.000116 0.0448828 0.0459446 -0.00707053 2650 
3825 1 -0.00993822 0.0146436 -0.0132477 0.000116 -0.0161164 0.017935 0.0427188 2650 
4231 1 -0.00192448 0.0187032 -0.0129978 0.000116 -0.0134934 0.0153003 0.0304581 2650 
3686 1 -0.0105965 0.0191335 -0.0128804 0.000116 0.0215061 0.0913964 -0.00906023 2650 