ITEM: TIMESTEP
5636556
ITEM: NUMBER OF ATOMS
4369
ITEM: BOX BOUNDS ff ff ff
-0.15 0.15
-0.15 0.06
-0.15 0.15
ITEM: ATOMS id type x y z radius vx vy vz density 
2833 1 -0.0141034 -0.0516009 -0.0674227 0.000116 -4.42692 0.363664 0.951933 2650 
3601 1 -0.0314225 -0.0459597 -0.0612996 0.000116 -5.4082 0.135928 2.78637 2650 
2314 1 -0.0398218 -0.0550495 -0.0555466 0.000656 -4.34573 0.489444 3.13538 2650 
2317 1 -0.0493397 -0.0471274 -0.0472937 0.000656 -4.76864 -0.00120792 4.97886 2650 
1320 1 -0.0575531 -0.0496272 -0.0379857 4.2e-05 -4.36278 0.272251 6.61204 2650 
3426 1 -0.0621141 -0.0570117 0.0290651 0.000423 1.8812 -0.621919 4.00602 2650 
983 1 -0.0345066 -0.0624175 0.059704 4.2e-05 9.47728 -0.0118123 5.47784 2650 
3038 1 -0.0030998 -0.0612444 0.0688142 0.000116 5.16627 0.0235198 0.249461 2650 
428 1 -0.0463914 -0.0218725 -0.144154 0.000116 -7.87079 -0.133822 -8.01462 2650 
167 1 -0.00245431 -0.0230363 -0.0688399 0.000116 -5.54119 0.223122 0.212825 2650 
2404 1 -0.00224041 -0.0223587 -0.0688474 0.000116 -3.95151 0.0849307 0.119705 2650 
3570 1 -0.00231016 -0.0226463 -0.068845 0.000116 -4.42578 0.0682401 0.169586 2650 
4019 1 -0.00475577 -0.0169023 -0.0687196 0.000116 -4.01563 0.202007 0.299326 2650 
2487 1 -0.00792636 -0.0409308 -0.0684264 0.000116 -4.2801 -0.549377 0.481024 2650 
2732 1 -0.0065796 -0.0300877 -0.0685501 0.000116 -5.62485 -0.590812 0.585224 2650 
341 1 -0.00326908 -0.0270468 -0.0682681 0.000656 -4.40599 -0.198934 0.202487 2650 
1335 1 -0.00164767 -0.01749 -0.068554 0.000423 -4.84098 -0.102188 0.0910075 2650 
2296 1 -0.0100409 -0.0110649 -0.0681488 0.000116 -4.81357 0.713762 0.716671 2650 
1798 1 -0.00559573 -0.0098428 -0.0683495 0.000423 -4.94722 0.245288 0.38469 2650 
2966 1 -0.0103382 -0.0300896 -0.0675521 0.000656 -5.57892 -0.0242695 0.828507 2650 
3018 1 -0.010194 -0.0287347 -0.0678054 0.000423 -4.86608 0.117023 0.695034 2650 
2612 1 -0.0133946 -0.0244218 -0.0675692 0.000116 -5.9226 0.406838 1.14333 2650 
2911 1 -0.0139294 -0.0211317 -0.0671486 0.000423 -6.21016 -0.296187 1.26683 2650 
1784 1 -0.0132794 -0.0147333 -0.0672806 0.000423 -4.71967 0.387743 0.933096 2650 
1956 1 -0.0122923 -0.0137082 -0.0677787 0.000116 -4.68023 0.204216 0.843906 2650 
1832 1 -0.0139947 -0.00011883 -0.0674472 0.000116 -4.45529 0.0036878 0.939688 2650 
1042 1 -0.0163583 -0.0373648 -0.0665982 0.000423 -5.08958 -0.17566 1.24868 2650 
3088 1 -0.0172724 -0.0353498 -0.0663678 0.000423 -5.43413 0.165853 1.43441 2650 
3174 1 -0.0176317 -0.0224105 -0.0666655 4.2e-05 -9.47785 -0.647263 2.50818 2650 
3815 1 -0.0164814 -0.00959394 -0.0668833 0.000116 -3.12146 -0.198285 0.758191 2650 
4204 1 -0.0157598 -0.00741355 -0.0667428 0.000423 -3.65435 -0.141442 0.842722 2650 
83 1 -0.0183502 -0.00449074 -0.066395 0.000116 -6.04269 0.0543241 1.68872 2650 
615 1 -0.0179904 -0.000116025 -0.0664932 0.000116 -4.88662 -0.00401645 1.32566 2650 
3840 1 -0.0189788 -0.0388381 -0.0656578 0.000656 -5.77153 -0.201282 1.68441 2650 
689 1 -0.0222183 -0.0330933 -0.0648789 0.000423 -5.98857 0.0959827 2.05149 2650 
902 1 -0.0208271 -0.0316497 -0.0653393 0.000423 -5.3431 -0.506535 1.70656 2650 
1157 1 -0.0225581 -0.0121733 -0.0650856 0.000116 -3.18872 -0.243287 1.13493 2650 
1655 1 -0.023188 -0.0329895 -0.064293 0.000656 -5.99436 -0.0038829 2.14365 2650 
114 1 -0.0225284 -0.0238308 -0.0645275 0.000656 -5.57355 -0.409768 1.95051 2650 
2051 1 -0.0262383 -0.0185826 -0.0636911 0.000116 -4.43252 0.726398 1.82287 2650 
2745 1 -0.0275763 -0.0180957 -0.0632037 4.2e-05 -4.48674 0.361536 1.9633 2650 
3381 1 -0.0264959 -0.0150056 -0.0635845 0.000116 -3.69981 -0.170718 1.54757 2650 
2023 1 -0.0269706 -0.0304083 -0.063052 0.000423 -5.14649 0.0819352 2.21566 2650 
379 1 -0.0273253 -0.0259177 -0.0628987 0.000423 -5.04593 0.226669 2.19254 2650 
3785 1 -0.0281357 -0.0155703 -0.062876 0.000116 -5.92225 0.827452 2.63421 2650 
1210 1 -0.0281138 -0.00965967 -0.0629663 4.2e-05 -2.90205 -0.239222 1.31703 2650 
3339 1 -0.0277618 -0.00993471 -0.0627073 0.000423 -4.08168 -0.212451 1.81227 2650 
528 1 -0.0280366 -0.00511374 -0.0629201 0.000116 -4.67414 -0.0923972 2.115 2650 
4305 1 -0.0282032 -0.00437125 -0.0625095 0.000423 -4.44005 -0.0627235 2.01842 2650 
579 1 -0.0285689 -0.00266882 -0.0623436 0.000423 -4.37666 0.0912308 1.99911 2650 
555 1 -0.0289705 -0.0328016 -0.0619017 0.000656 -5.5816 -0.165255 2.60598 2650 
2350 1 -0.0287849 -0.0277079 -0.0622444 0.000423 -4.95017 0.341307 2.27084 2650 
850 1 -0.0308271 -0.0250322 -0.0616008 0.000116 -3.98978 0.245498 2.01295 2650 
2074 1 -0.0294979 -0.000744913 -0.0622484 0.000116 -3.58489 -0.0659667 1.7132 2650 
2679 1 -0.0331721 -0.0325889 -0.0600213 0.000423 -4.61421 0.0850253 2.54327 2650 
827 1 -0.0334932 -0.0302193 -0.0601936 0.000116 -4.55408 0.3634 2.54243 2650 
1716 1 -0.0331153 -0.016293 -0.060402 0.000116 -4.63546 0.495499 2.52033 2650 
3580 1 -0.0348324 -0.0118186 -0.0594289 0.000116 -4.26061 0.494953 2.49867 2650 
4037 1 -0.0352758 -0.0337172 -0.0591669 0.000116 -3.95111 -0.0136044 2.36868 2650 
2436 1 -0.0349361 -0.0305924 -0.0590122 0.000423 -4.0228 0.233452 2.38294 2650 
3154 1 -0.0375443 -0.0176211 -0.0577528 0.000116 -5.26687 0.152035 3.41281 2650 
491 1 -0.0369409 -0.0106353 -0.0577784 0.000423 -3.29705 -0.172028 2.09816 2650 
3196 1 -0.0365441 -0.00951982 -0.0579811 0.000423 -2.3362 -0.427874 2.11126 2650 
4338 1 -0.0368215 -0.00801297 -0.0582172 0.000116 -3.39385 -0.0671584 2.16737 2650 
3683 1 -0.0398319 -0.0125993 -0.0561999 0.000116 -4.10316 0.187493 2.86147 2650 
3095 1 -0.0393822 -0.0121929 -0.0561438 0.000423 -4.08443 0.256241 2.90537 2650 
1503 1 -0.0390055 -0.00992176 -0.0567763 0.000116 -4.08982 0.366312 2.77445 2650 
3005 1 -0.0401215 -0.00837052 -0.0556129 0.000423 -3.62006 -0.194043 2.57137 2650 
1740 1 -0.0417242 -0.0242171 -0.0548083 0.000116 -3.91477 0.0511621 2.9307 2650 
3229 1 -0.0421668 -0.0274205 -0.0540768 0.000423 -4.07223 -0.0998725 3.18274 2650 
2680 1 -0.0421611 -0.0136179 -0.0540743 0.000423 -3.41579 -0.182912 2.56052 2650 
3470 1 -0.0436836 -0.0145746 -0.0532442 0.000116 -3.57965 -0.522622 3.00154 2650 
1433 1 -0.0429473 -0.0133288 -0.0531462 0.000656 -3.33864 -0.216659 2.73556 2650 
2601 1 -0.0445091 -0.0285709 -0.0525343 0.000116 -4.20055 0.491422 3.47181 2650 
574 1 -0.0442563 -0.0206786 -0.0523865 0.000423 -4.25114 0.277759 3.576 2650 
893 1 -0.0451163 -0.033663 -0.0516106 0.000423 -4.09055 0.100252 3.54934 2650 
163 1 -0.0446135 -0.0308092 -0.0520494 0.000423 -4.2858 0.0607471 3.59509 2650 
992 1 -0.0448076 -0.0232511 -0.0516077 0.000656 -4.6717 -0.170811 4.09716 2650 
367 1 -0.0454607 -0.0223303 -0.0513447 0.000423 -4.30718 0.293051 3.75787 2650 
4087 1 -0.0448965 -0.0206587 -0.0514829 0.000423 -4.45708 0.117925 3.97827 2650 
2160 1 -0.045161 -0.000664868 -0.0520138 0.000116 -3.23721 -0.0997473 2.8818 2650 
1213 1 -0.0456367 -0.0148532 -0.0508605 0.000656 -3.50048 -0.111554 3.27571 2650 
2052 1 -0.0461898 -0.014093 -0.0510811 0.000116 -2.37706 -0.258789 2.27388 2650 
2895 1 -0.0466744 -0.0188981 -0.0502437 0.000423 -3.7565 0.244568 3.52526 2650 
3502 1 -0.0475406 -0.005578 -0.0499497 4.2e-05 -2.31029 -0.121471 2.26556 2650 
2875 1 -0.0487569 -0.0117054 -0.0482247 0.000423 -2.35255 -0.403619 2.40334 2650 
420 1 -0.049373 -0.0132756 -0.0480338 0.000116 -2.44093 -0.223893 2.53745 2650 
2238 1 -0.0501104 -0.0346136 -0.0468179 0.000423 -3.23583 0.525843 3.46646 2650 
1304 1 -0.0508607 -0.0287821 -0.046457 0.000116 -3.79179 0.036021 4.17876 2650 
2457 1 -0.0509652 -0.0232408 -0.0458854 0.000423 -3.68514 0.22442 4.07068 2650 
2132 1 -0.0515238 -0.0377549 -0.0452576 0.000423 -3.58962 0.807601 4.1007 2650 
2703 1 -0.0520372 -0.0361618 -0.045135 0.000116 -3.65542 -1.36639 4.22396 2650 
1915 1 -0.0515981 -0.0245633 -0.0451728 0.000423 -3.9664 0.215385 4.49146 2650 
897 1 -0.052149 -0.0446045 -0.0445343 0.000423 -3.74001 -0.0357995 4.35015 2650 
416 1 -0.0535951 -0.0256909 -0.0432735 0.000116 -3.58484 0.269167 4.42719 2650 
1453 1 -0.0533263 -0.0241091 -0.0431189 0.000423 -3.35276 -0.372388 4.14188 2650 
4101 1 -0.0534865 -0.0188968 -0.0429195 0.000423 -3.37816 -0.157209 4.18503 2650 
336 1 -0.0536155 -0.0329122 -0.0423858 0.000656 -3.558 -0.184509 4.52674 2650 
91 1 -0.0547104 -0.00589217 -0.0418544 0.000116 -2.21909 0.145141 2.87668 2650 
2353 1 -0.0546794 -0.00375259 -0.041389 0.000423 -3.04024 -0.20049 4.05393 2650 
4331 1 -0.0555163 -0.00972978 -0.0407808 0.000116 -1.91576 -0.259923 2.591 2650 
2823 1 -0.0562843 -0.000115997 -0.0397126 0.000116 -2.15151 0.000133681 3.0315 2650 
1107 1 -0.0563858 -0.0283338 -0.0386225 0.000656 -3.47107 -0.0617531 4.99676 2650 
82 1 -0.0565994 -0.0247964 -0.0392605 0.000116 -2.4508 -0.149189 3.51239 2650 
2103 1 -0.0562517 -0.0158485 -0.0392238 0.000423 -2.45722 -0.308998 3.46798 2650 
400 1 -0.0567963 -0.0159001 -0.0389755 0.000116 -2.42589 -0.321589 3.5461 2650 
1356 1 -0.0561436 -0.0148917 -0.0393802 0.000423 -2.53787 -0.192953 3.63928 2650 
3198 1 -0.0561416 -0.013996 -0.0393832 0.000423 -2.7164 -0.113808 3.78662 2650 
1500 1 -0.00363127 -0.00939007 -0.0393647 0.000116 -0.66826 -0.707086 -5.74252 2650 
4139 1 -0.0572043 -0.0350537 -0.0383754 0.000116 -3.33795 -0.0279359 5.04222 2650 
432 1 -0.0572638 -0.0147919 -0.0384172 4.2e-05 -2.39773 0.153157 3.67803 2650 
814 1 -0.0571907 -0.00155203 -0.0378409 0.000423 -2.47536 -0.128827 3.77805 2650 
1535 1 -0.0574415 -4.1994e-05 -0.0381534 4.2e-05 -2.16855 -0.00059489 3.24005 2650 
1071 1 -0.0582826 -0.0233495 -0.0367152 0.000116 -3.28355 -0.00515575 5.21271 2650 
3514 1 -0.0579152 -0.0225638 -0.0362929 0.000656 -3.30401 0.0263122 5.28427 2650 
3349 1 -0.0568005 -0.00460185 -0.0364042 0.000116 -3.57508 -0.0411087 1.0798 2650 
3319 1 -0.058921 -0.0298345 -0.0350878 0.000423 -2.8794 0.0881981 4.52506 2650 
3729 1 -0.0585601 -0.0236528 -0.0352363 0.000656 -3.2079 0.0417189 5.51066 2650 
3261 1 -0.0590894 -0.0218876 -0.0354038 0.000116 -3.37462 0.271745 5.65473 2650 
319 1 -0.0594551 -0.0149046 -0.0347855 0.000116 -1.82657 0.103305 3.24553 2650 
1886 1 -0.0474502 -0.0060852 -0.0348385 0.000423 -7.29175 -0.240135 -5.36033 2650 
1601 1 -0.0595702 -0.0249633 -0.0345768 0.000116 -2.97857 -0.507046 5.07181 2650 
1481 1 -0.0596713 -0.0333613 -0.0337527 0.000423 -2.58765 0.327793 4.41215 2650 
3974 1 -0.0596755 -0.0180632 -0.0337838 0.000423 -2.96408 -0.13838 5.20098 2650 
618 1 -0.0606871 -0.0319082 -0.0325337 0.000116 -2.36501 -0.415569 4.52587 2650 
312 1 -0.0605269 -0.0294201 -0.032826 0.000116 -3.56136 -1.30894 6.62048 2650 
1081 1 -0.0607491 -0.0189696 -0.0324616 0.000116 -2.92773 0.229004 5.41019 2650 
3360 1 -0.0594947 -0.041417 -0.0316863 0.000116 0.791401 -0.342896 8.20818 2650 
3242 1 -0.0611854 -0.0209557 -0.0316422 0.000116 -2.2325 -0.351182 4.32513 2650 
397 1 -0.0610567 -0.00821758 -0.0318601 0.000116 -2.18981 -0.266637 4.46088 2650 
38 1 -0.0609728 -0.0270724 -0.0313838 0.000423 -2.41789 0.227492 4.92618 2650 
1905 1 -0.061253 -0.0246588 -0.0308349 0.000423 -2.39115 0.0526537 4.74795 2650 
3054 1 -0.0617066 -0.02228 -0.0306144 0.000116 -2.49273 -0.0475924 5.1197 2650 
2167 1 -0.0622227 -0.0298369 -0.0295517 0.000116 -2.28684 -0.237499 4.80434 2650 
2087 1 -0.0621306 -0.0239768 -0.029916 4.2e-05 -2.13667 -1.42347 4.42643 2650 
35 1 -0.0624338 -0.0433958 -0.028364 0.000423 -1.8828 -0.109349 4.07311 2650 
2685 1 -0.0622667 -0.0248468 -0.0287369 0.000423 -2.16831 0.405363 4.70024 2650 
2928 1 -0.0627532 -0.0156654 -0.028408 0.000116 -2.33304 0.166395 5.16498 2650 
3812 1 -0.0630627 -0.0212591 -0.027714 0.000116 -2.09065 -0.579865 4.80053 2650 
3248 1 -0.0634374 -0.00659411 -0.0268453 0.000116 -1.40068 -0.100583 3.26869 2650 
2232 1 -0.0634768 -0.023166 -0.0259546 0.000423 -2.07156 -0.00975884 5.01977 2650 
3479 1 -0.0643974 -0.0164563 -0.0244533 0.000116 -2.02205 0.175341 5.30346 2650 
1461 1 -0.0643522 -0.0179436 -0.0237001 0.000423 -1.96789 0.0298071 5.33693 2650 
838 1 -0.0644305 -0.0104392 -0.0243681 0.000116 -1.19826 -0.198279 3.17556 2650 
1314 1 -0.0645287 -0.00396623 -0.0243152 4.2e-05 -1.94961 0.0250483 5.18556 2650 
3015 1 -0.0645859 -0.0174366 -0.0230562 0.000423 -1.87912 0.268625 5.22629 2650 
2151 1 -0.0650331 -0.0070848 -0.0227111 0.000116 -1.44539 -0.0505054 4.11562 2650 
835 1 -0.0654594 -0.00859938 -0.021452 0.000116 -1.23255 -0.081339 3.76585 2650 
2557 1 -0.0653717 -0.0339896 -0.0207255 0.000423 -1.69558 0.100673 5.36016 2650 
646 1 -0.0655714 -0.00882484 -0.0211049 0.000116 -1.22071 -0.0444696 3.80962 2650 
15 1 -0.00281235 -0.00428898 -0.0206638 0.000423 -0.345866 -0.154286 -2.77147 2650 
2820 1 -0.066016 -0.000277663 -0.0196692 0.000116 -1.43227 -0.0454851 4.82433 2650 
3960 1 -0.0657021 -0.00854699 -0.0196534 0.000423 -0.884649 -0.049323 3.01532 2650 
3256 1 -0.00342857 -0.00508919 -0.0191714 0.000116 -0.471949 -0.249817 -2.54298 2650 
1914 1 -0.0660062 -0.0176399 -0.018604 0.000423 -1.5838 0.179336 5.61596 2650 
2198 1 -0.0663409 -0.000342802 -0.0188162 4.2e-05 -0.888439 -0.0625459 3.16318 2650 
1510 1 -0.0666221 -0.0300961 -0.0175088 0.000116 -1.29392 0.0615856 4.89749 2650 
1364 1 -0.000252766 -0.00379567 -0.0168081 0.000423 -0.0915509 -0.272547 -0.40734 2650 
606 1 -0.000183 0.00323801 -0.016592 0.000116 0 -0.011753 0 2650 
3589 1 -0.00210077 0.00513931 -0.0166318 0.000116 0.155503 0.064687 -0.0402711 2650 
188 1 -0.000591251 0.00908873 -0.016805 0.000116 -0.0156058 0.0716121 0.00169132 2650 
2713 1 -0.000763 0.010209 -0.016767 0.000116 0 -0.011753 0 2650 
2793 1 -0.0019829 0.000519375 -0.0163297 0.000423 -0.0619663 0.155434 -0.0416793 2650 
736 1 -0.003429 0.00116301 -0.016474 0.000116 0 -0.011753 0 2650 
150 1 -0.00269342 0.00100775 -0.0162069 0.000423 -0.00913371 0.00501626 0.00203877 2650 
3043 1 -0.00239687 0.00195421 -0.0165729 0.000116 -0.0208666 0.256304 0.164665 2650 
676 1 -0.00250041 0.00189736 -0.0158685 0.000423 -0.0153526 -0.000110762 0.0217663 2650 
1679 1 -0.00363618 0.00265591 -0.0159941 0.000423 -0.000267589 -0.00703629 -0.00433961 2650 
2013 1 -0.0027386 0.00284907 -0.0161419 0.000423 0.00298908 -0.00809762 0.00112683 2650 
2301 1 -0.004222 0.00501101 -0.016305 4.2e-05 0 -0.011753 0 2650 
3121 1 -0.00340191 0.0050596 -0.0161537 0.000423 0.0295457 0.00139416 -0.0105356 2650 
1388 1 -0.000680381 0.00519595 -0.0160654 0.000116 -0.039288 0.0021603 0.0169103 2650 
302 1 -0.00042594 0.0063534 -0.0163339 0.000116 0.0171051 0.0203877 0.0103663 2650 
1219 1 -0.00074492 0.00690566 -0.0157992 0.000656 0.0133734 0.0239605 0.00857101 2650 
3934 1 -0.001977 0.00800001 -0.016218 0.000116 0 -0.011753 0 2650 
1617 1 -0.00374294 0.00968441 -0.0160995 0.000116 0.0304875 0.00968505 -0.0492471 2650 
4245 1 -0.00161805 0.0401006 -0.0163924 0.000116 -0.131082 0.152483 0.00432583 2650 
1357 1 -0.00319087 0.0485858 -0.0161091 0.000423 0.0681058 0.285169 -0.0155587 2650 
4138 1 -0.0672013 -0.0277076 -0.015134 0.000116 -1.04583 -0.014525 4.57805 2650 
2738 1 -0.0671901 -0.0164814 -0.0155081 4.2e-05 -0.745423 -0.263006 3.24977 2650 
623 1 -0.00687883 0.000543815 -0.0153272 0.000116 0.0135085 -0.00577665 0.0160157 2650 
1991 1 -0.00508099 0.000538067 -0.0152959 0.000656 -0.0197706 -0.00214867 0.00868857 2650 
222 1 -0.00205398 0.000252271 -0.0150672 0.000656 -0.0189906 -0.0240038 0.0410277 2650 
3637 1 -0.00372255 0.00213313 -0.0151018 0.000423 -0.00927208 0.0142333 -0.0137243 2650 
3239 1 -0.00311498 0.00175073 -0.0157453 0.000116 -0.0332144 0.00168872 0.00188105 2650 
2399 1 -0.002418 0.00345201 -0.015541 0.000116 0 -0.011753 0 2650 
2283 1 -0.00194695 0.00392911 -0.0154216 0.000116 -0.0318858 -0.01081 -0.0228231 2650 
2313 1 -0.00492074 0.00548104 -0.0152213 0.000656 0.00856952 0.0288131 0.00982472 2650 
2438 1 -0.00570879 0.00668848 -0.0154322 0.000423 0.0095107 -0.00232096 0.00866566 2650 
978 1 -0.00505905 0.00685977 -0.0155965 0.000116 0.015313 -0.00383775 -0.0151954 2650 
1620 1 -0.00348737 0.00770935 -0.0156342 0.000116 0.0529387 0.0514306 -0.00503745 2650 
2969 1 -0.00136666 0.00797713 -0.0150928 0.000656 -0.00819712 0.0280435 0.000260256 2650 
1483 1 -0.000311514 0.00836055 -0.0152635 0.000423 -0.0010087 0.0213686 -0.00667363 2650 
86 1 -0.002064 0.00925601 -0.015055 0.000116 0 -0.011753 0 2650 
3177 1 -0.001068 0.00905601 -0.015412 4.2e-05 0 -0.011753 0 2650 
1228 1 -0.00142563 0.00932161 -0.0150085 0.000423 -0.00123313 -0.0118667 -0.000623591 2650 
3830 1 -0.006879 0.00955201 -0.015411 4.2e-05 0 -0.011753 0 2650 
371 1 -0.000463266 0.0100251 -0.0152259 0.000423 0.000724313 -0.00601752 -0.0061741 2650 
938 1 -0.000869 0.010462 -0.015416 0.000116 0 -0.011753 0 2650 
568 1 -0.00313222 0.016475 -0.0154676 0.000423 0.0646767 0.0324089 0.0265592 2650 
142 1 -0.00386441 0.0230833 -0.0156896 0.000423 -0.0600809 0.0373384 0.0570253 2650 
913 1 -0.000928416 0.0238008 -0.0153788 0.000423 -0.0131935 0.0940792 0.0439723 2650 
3573 1 -0.00531011 0.0325611 -0.0152811 0.000116 0.196545 -0.226716 -0.153339 2650 
2827 1 -0.00493408 -0.00102283 -0.014266 0.000116 -0.0201753 -0.0226203 0.0017234 2650 
2817 1 -0.00188307 -0.000935004 -0.0144633 0.000116 0.0100645 -0.056664 0.00630574 2650 
1053 1 -0.007469 -0.000389987 -0.014946 0.000116 0 -0.011753 0 2650 
2332 1 -0.00422176 0.000199243 -0.0143205 0.000423 -0.0114447 -0.00779769 0.00753018 2650 
2922 1 -0.00649798 0.00161951 -0.0149773 0.000116 -0.0108987 -0.0113206 0.0393947 2650 
220 1 -0.00364584 0.00254444 -0.0148862 4.2e-05 0.00197382 0.00663681 0.00671825 2650 
3365 1 -0.002315 0.00587801 -0.014552 0.000116 0 -0.011753 0 2650 
3950 1 -0.00708679 0.00651047 -0.0146438 0.000656 -0.0401516 -0.0144037 -0.0334096 2650 
1618 1 -0.00823059 0.00719887 -0.014512 0.000116 -0.0222988 0.059375 0.0201275 2650 
963 1 -0.00548476 0.0078139 -0.0148448 0.000116 -0.029376 -0.065298 -0.0412241 2650 
4190 1 -0.00826551 0.00856533 -0.0142437 0.000423 -0.009489 7.8582e-05 0.00632979 2650 
581 1 -0.00559985 0.00874951 -0.0143083 0.000423 -0.000593495 -0.0101803 -0.00423903 2650 
233 1 -0.00478128 0.00987461 -0.0143401 0.000423 0.000342891 -0.00976437 -0.0328705 2650 
3669 1 -0.000275754 0.0107164 -0.0146269 0.000423 0.00220454 -0.00743356 -0.00383523 2650 
3644 1 -0.000895492 0.0123447 -0.0146158 0.000423 -0.00432743 0.00711996 -0.0325914 2650 
4210 1 -0.0672134 -0.028636 -0.0136161 0.000423 -1.05705 0.253094 5.16503 2650 
1468 1 -0.00438488 -0.00204594 -0.0134669 0.000423 -0.0197001 -0.0470204 -0.0326717 2650 
509 1 -0.0073228 -0.000440802 -0.0139395 0.000116 -0.00521486 0.00944493 -0.0325939 2650 
3733 1 -0.00632699 0.000997006 -0.0138587 0.000656 -0.0232119 0.0173762 0.0152854 2650 
234 1 -0.0012991 0.00391199 -0.0137986 0.000423 0.0351287 -0.0167305 0.0264562 2650 
2512 1 -0.00966639 0.00448794 -0.0136874 0.000116 0.018779 -0.0192413 0.00230208 2650 
1171 1 -0.00858268 0.00432452 -0.0140206 0.000116 -0.0146011 -0.0168948 -0.0399555 2650 
3587 1 -0.00594198 0.00403529 -0.0140592 0.000116 -0.0152422 -0.0151231 -0.00566973 2650 
4165 1 -0.00517168 0.00431668 -0.0138018 0.000656 -6.3943e-05 -0.032131 0.00827285 2650 
2918 1 -0.0077674 0.00478166 -0.0135156 0.000116 -0.0132236 0.0205789 -0.0380223 2650 
4296 1 -0.00337028 0.00635516 -0.0136221 0.000423 -0.0431702 0.0421068 0.0473826 2650 
4227 1 -0.000283567 0.00710042 -0.0140089 0.000116 -0.00921828 -0.0161692 0.0154311 2650 
2322 1 -0.00822886 0.00730976 -0.0136248 0.000656 -0.0108707 -0.010103 0.00337555 2650 
3515 1 -0.00708706 0.00786338 -0.0141505 0.000656 -0.0103794 -0.0121819 0.00307219 2650 
1288 1 -0.002467 0.00718101 -0.014044 0.000116 0 -0.011753 0 2650 
508 1 -0.00911123 0.00821031 -0.0138708 0.000116 -0.0609474 0.0130298 0.0475554 2650 
2222 1 -0.000398358 0.00806361 -0.0141601 0.000423 -0.00549102 -0.00568171 -0.00117535 2650 
1827 1 -0.00629402 0.0093916 -0.0138955 0.000116 -0.0386186 0.00754243 -0.0442276 2650 
1476 1 -0.006941 0.00998101 -0.013435 0.000423 0 -0.011753 0 2650 
1986 1 -0.00298299 0.0097008 -0.0138851 0.000656 0.00762539 0.0149956 0.0116892 2650 
4257 1 -0.00830918 0.0103092 -0.0141005 0.000116 0.0101268 -0.0416798 0.0036163 2650 
1409 1 -0.00044 0.010961 -0.013868 0.000116 0 -0.011753 0 2650 
3007 1 -0.00120278 0.0114424 -0.0137278 0.000423 -0.0135196 -0.00505473 -0.0280609 2650 
3632 1 -0.00954053 0.0127925 -0.0134953 0.000423 -0.0216519 0.000467483 0.0139725 2650 
478 1 -0.00728185 0.0148876 -0.0138688 0.000423 -0.0255767 0.012458 -0.051203 2650 
3216 1 -0.00457062 0.0253041 -0.0140122 0.000423 -0.00544148 0.107266 0.0543995 2650 
2467 1 -0.0013818 0.0300914 -0.0137669 0.000423 0.0301791 0.103437 0.0421276 2650 
1343 1 -0.0673715 -0.00736674 -0.0128065 0.000423 -0.930892 -0.243081 3.88044 2650 
1022 1 -0.00255533 -0.00246823 -0.0127136 0.000423 -0.0361806 0.0454744 -0.169588 2650 
3153 1 -0.00201736 -0.00252493 -0.0128903 0.000116 0.0575311 -0.0297429 -0.0490481 2650 
545 1 -0.00232904 -0.00220313 -0.0132481 4.2e-05 -0.000252069 0.0758595 -0.196498 2650 
3551 1 -0.00637039 0.000224657 -0.0130914 0.000423 -0.015336 0.00523015 0.00637389 2650 
541 1 -0.00628417 0.000691912 -0.0127127 4.2e-05 -0.0143735 0.00954058 0.00936495 2650 
4126 1 -0.00459666 7.70176e-05 -0.0132904 0.000116 -0.0261531 0.0084042 0.00402279 2650 
2525 1 -0.004063 0.00140801 -0.013231 4.2e-05 0 -0.011753 0 2650 
2619 1 -0.005851 0.00222401 -0.012854 0.000116 0 -0.011753 0 2650 
3880 1 -0.010277 0.00314001 -0.012913 0.000423 0 -0.011753 0 2650 
2609 1 -0.00886 0.00294801 -0.013248 0.000116 0 -0.011753 0 2650 
3917 1 -0.003984 0.00370901 -0.012703 0.000116 0 -0.011753 0 2650 
2059 1 -0.003583 0.00391801 -0.012756 0.000116 0 -0.011753 0 2650 
1032 1 -0.00771584 0.00397413 -0.0133987 0.000423 -0.0173367 -0.00904293 -0.0556269 2650 
2912 1 -0.00563904 0.00466949 -0.0132518 0.000116 0.00196064 0.0151142 0.00117299 2650 
3322 1 -0.00358406 0.00450324 -0.0130294 0.000423 0.0155165 0.0110838 0.0251988 2650 
2596 1 -0.00926256 0.00527706 -0.0130041 0.000116 -0.0442582 -0.0431064 0.0384975 2650 
450 1 -0.00646275 0.00526218 -0.0132475 0.000656 0.0112424 0.0469319 0.00733295 2650 
4078 1 -0.00902221 0.00629508 -0.012714 0.000423 -0.0196946 -0.00953845 0.00130892 2650 
104 1 -0.00294632 0.00580682 -0.0132308 4.2e-05 -0.00674979 0.0150481 0.0116551 2650 
1427 1 -0.002948 0.00624901 -0.013376 4.2e-05 0 -0.011753 0 2650 
3446 1 -0.00255321 0.0058484 -0.0126355 0.000423 0.014297 -0.016402 -0.00312272 2650 
2913 1 -0.00754082 0.0068468 -0.0131826 0.000116 -0.028239 -0.0119827 -0.0130286 2650 
1237 1 -0.0101297 0.00772272 -0.0130761 0.000423 0.0147702 0.0203613 -0.00922036 2650 
3259 1 -0.00869746 0.00759229 -0.013035 0.000116 -0.0089878 -0.00810535 0.00538998 2650 
1584 1 -0.00144178 0.00734963 -0.0131606 0.000423 -0.00963006 0.0395817 0.04039 2650 
1795 1 -0.0087427 0.00824595 -0.0129777 0.000423 0.00165908 -0.0118589 -0.000959055 2650 
1769 1 -0.0063752 0.00863577 -0.0133188 0.000656 -0.0139492 0.00030421 -0.000268195 2650 
2483 1 -0.00907168 0.00942011 -0.0130988 0.000116 0.00258646 -0.0218162 0.0129531 2650 
1250 1 -0.00783887 0.00879855 -0.013022 0.000423 -0.0109693 -0.0170514 -0.0143142 2650 
205 1 -0.000744 0.00896501 -0.01334 0.000116 0 -0.011753 0 2650 
289 1 -0.0014238 0.00975353 -0.0127069 0.000116 -0.0188061 -0.000940224 -0.0594549 2650 
949 1 -0.00649077 0.0109602 -0.0127476 0.000116 -0.0176518 0.0277962 -0.00593252 2650 
1775 1 -0.00822798 0.0117176 -0.0130435 0.000423 -7.29146e-05 -0.011186 -0.000346901 2650 
959 1 -0.00750859 0.0126695 -0.0130364 0.000116 -0.0723779 0.0623805 -0.0339909 2650 
3932 1 -0.00478621 0.0204085 -0.0126991 0.000116 0.03152 0.0411719 0.0597923 2650 
330 1 -0.00765436 -0.00301557 -0.0125799 4.2e-05 -0.0696064 -0.0147686 0.0345761 2650 
4097 1 -0.0087882 -0.00224012 -0.0125902 0.000423 -0.0116536 0.00229875 0.0371095 2650 
2172 1 -0.00834772 -0.00165333 -0.0126166 0.000116 0.0554355 0.00150652 -0.0523356 2650 
800 1 -0.00666968 -0.00187834 -0.0121076 0.000423 -0.00429202 -0.0325333 0.0439645 2650 
2468 1 -0.00331924 -0.00209469 -0.0121304 0.000423 -0.0504222 0.0211365 0.000191011 2650 
1763 1 -0.001143 -0.00190599 -0.012442 0.000656 0 -0.011753 0 2650 
3191 1 -0.0071396 -0.000300247 -0.0125405 0.000656 -0.0197381 0.00193499 -0.0014393 2650 
1422 1 -0.003881 -5.99869e-05 -0.012349 4.2e-05 0 -0.011753 0 2650 
1799 1 -0.00323063 0.000748038 -0.0120568 0.000423 7.10678e-05 -0.0118308 4.63239e-05 2650 
3201 1 -0.00627852 0.00136454 -0.0123524 0.000423 -0.00608722 0.0216696 0.0089772 2650 
3389 1 -0.010415 0.00220601 -0.012026 0.000116 0 -0.011753 0 2650 
3956 1 -0.00903899 0.00162771 -0.0123082 0.000656 -0.000640959 -0.0104529 -0.000368355 2650 
388 1 -0.00725711 0.00168573 -0.0119717 0.000116 0.0212466 0.0335067 0.0250458 2650 
3645 1 -0.00574453 0.00332443 -0.0125882 0.000423 -0.0357151 -0.0039173 0.0164321 2650 
1192 1 -0.00508124 0.0035797 -0.0119003 0.000116 -0.0160738 0.0171838 -0.0228619 2650 
411 1 -0.0104581 0.00454462 -0.0120903 0.000116 -0.00787832 -0.00657823 -8.20909e-05 2650 
3826 1 -0.009208 0.00410101 -0.012552 0.000116 0 -0.011753 0 2650 
708 1 -0.0027896 0.00450678 -0.012279 0.000423 -0.00318183 -0.00599768 -0.010405 2650 
3380 1 -0.00223173 0.00441667 -0.0122515 0.000116 -0.00133046 -0.0120531 0.0302183 2650 
2194 1 -0.00228738 0.00465566 -0.0124718 4.2e-05 0.00491046 0.00111596 0.00228026 2650 
2957 1 -0.00166029 0.00437488 -0.0122608 4.2e-05 0.0205169 0.0248349 -0.000218849 2650 
3316 1 -0.008979 0.00485401 -0.012376 0.000423 0 -0.011753 0 2650 
1261 1 -0.00744905 0.00494395 -0.0124358 0.000423 -0.000148786 -0.00207045 -0.0014312 2650 
3362 1 -0.00266314 0.00509984 -0.0123011 0.000116 0.000350619 -0.00253681 -0.00404217 2650 
2219 1 -0.00324129 0.00635009 -0.0124087 0.000423 0.0430827 0.0512131 0.0198144 2650 
3030 1 -0.001189 0.00636401 -0.012596 0.000116 0 -0.011753 0 2650 
445 1 -0.00963171 0.00732047 -0.0122062 0.000656 -0.00157651 -0.00352117 -0.00927671 2650 
4318 1 -0.00861102 0.00765308 -0.0123179 0.000423 0.000634828 -0.00541564 0.00164809 2650 
1495 1 -0.004483 0.00783201 -0.012591 0.000116 0 -0.011753 0 2650 
2344 1 -0.000969886 0.00743435 -0.0120605 0.000423 0.00597873 -0.023338 -0.0226217 2650 
3847 1 -0.00964278 0.00866521 -0.0124574 0.000656 0.00191913 0.0130802 -0.00623859 2650 
2453 1 -0.00629287 0.00856759 -0.0120585 0.000423 0.00439844 0.0194243 -0.044432 2650 
3173 1 -0.004958 0.00849301 -0.012321 4.2e-05 0 -0.011753 0 2650 
3684 1 -0.00430101 0.00802418 -0.0124786 0.000116 0.00413104 -0.0230128 -0.00941473 2650 
1519 1 -0.00295022 0.00802361 -0.012316 0.000116 -0.0494896 0.0341374 0.0501115 2650 
4002 1 -0.000443 0.00852501 -0.01223 0.000116 0 -0.011753 0 2650 
4179 1 -0.00716268 0.00882658 -0.0121848 0.000423 -0.00767678 -0.0221048 -0.00852388 2650 
2630 1 -0.001036 0.00870101 -0.012074 4.2e-05 0 -0.011753 0 2650 
1423 1 -0.00145 0.010181 -0.012526 4.2e-05 0 -0.011753 0 2650 
3106 1 -0.00748275 0.0119397 -0.01232 0.000423 -0.042507 0.0242048 -0.0146805 2650 
1802 1 -0.00411887 0.0124572 -0.0120971 0.000423 0.00500259 -0.000364755 -0.0111755 2650 
2205 1 -0.00512157 0.0132771 -0.0120588 0.000656 -0.00206311 0.000112593 -0.00429342 2650 
1143 1 -0.000800863 0.0144937 -0.0125388 0.000423 0.0070315 0.0110531 -0.00616027 2650 
675 1 -0.00523353 0.0216778 -0.0121423 0.000423 -0.0171714 0.0807922 0.0289201 2650 
1282 1 -0.0678927 -0.0145907 -0.0115813 0.000116 -0.723788 -0.182429 3.53291 2650 
3505 1 -0.006952 -0.00289799 -0.011235 4.2e-05 0 -0.011753 0 2650 
440 1 -0.00061 -0.00159599 -0.011485 4.2e-05 0 -0.011753 0 2650 
2645 1 -0.00590974 -0.00115713 -0.0115919 0.000656 -0.0129362 0.00179202 0.059477 2650 
2939 1 -0.00938841 -9.61862e-05 -0.0112751 0.000116 -0.00341769 -0.0275913 0.0148239 2650 
3200 1 -0.00849903 0.000194629 -0.0112764 0.000423 -0.0275514 -0.0115593 0.0194145 2650 
756 1 -0.00585311 5.37856e-05 -0.0117437 0.000116 0.041834 0.0697036 0.0154272 2650 
3894 1 -0.005583 0.00157501 -0.011098 0.000116 0 -0.011753 0 2650 
1063 1 -0.009531 0.00213001 -0.011683 0.000116 0 -0.011753 0 2650 
3477 1 -0.00945994 0.00266545 -0.0115964 0.000116 0.0616358 -0.0139442 -0.0219299 2650 
1595 1 -0.00797275 0.00291048 -0.0111468 0.000423 -0.0081111 0.00198047 0.0261702 2650 
2062 1 -0.00653131 0.00239183 -0.0114086 0.000116 -0.0517879 -0.0811336 0.00337392 2650 
2285 1 -0.0116095 0.00394248 -0.0118288 0.000116 0.0175306 0.0103543 0.003719 2650 
1125 1 -0.00607067 0.00329428 -0.0115498 0.000423 -0.0443086 0.0114405 0.0272453 2650 
2294 1 -0.004894 0.00381101 -0.011565 0.000116 0 -0.011753 0 2650 
2474 1 -0.00261027 0.00388743 -0.01135 0.000423 -0.00380852 -0.00865862 -0.00797376 2650 
2279 1 -0.0121255 0.00412057 -0.0110551 0.000116 -0.0158908 0.0502304 0.00803902 2650 
3787 1 -0.00642635 0.00435642 -0.0111856 0.000116 -0.0024271 -0.00223267 -0.0195234 2650 
878 1 -0.00391545 0.00454886 -0.0112153 4.2e-05 -0.000281569 -0.00211859 -0.00050102 2650 
1215 1 -0.0117217 0.00550618 -0.0112049 0.000656 -0.000279333 -0.00226461 0.00683019 2650 
1822 1 -0.00851662 0.0047599 -0.0111446 0.000116 -0.0361035 -0.0195415 0.0016013 2650 
3221 1 -0.00802985 0.00516537 -0.0114682 0.000423 -0.0383607 -5.03589e-05 -0.0190963 2650 
1758 1 -0.00201 0.00512501 -0.01144 4.2e-05 0 -0.011753 0 2650 
4027 1 -0.003218 0.00625601 -0.011075 0.000116 0 -0.011753 0 2650 
2409 1 -0.002586 0.00619501 -0.011527 4.2e-05 0 -0.011753 0 2650 
3283 1 -0.000939811 0.00630401 -0.0114751 4.2e-05 0.0397515 0.0433617 -0.0233311 2650 
763 1 -0.00539901 0.00669274 -0.0112228 4.2e-05 -0.0107376 -0.0192397 -0.014763 2650 
3456 1 -0.00360826 0.00693796 -0.0112677 0.000423 -0.000997028 -0.0111859 -0.00366568 2650 
89 1 -0.00969692 0.00726466 -0.0110869 0.000116 -0.0613221 0.00749938 0.00871125 2650 
2338 1 -0.00908809 0.00712611 -0.0112897 0.000423 -0.0329479 -0.00278614 0.0142677 2650 
713 1 -0.00769967 0.00763603 -0.0112876 0.000423 -0.0119296 0.00314301 0.00578085 2650 
2547 1 -0.0117652 0.0086489 -0.0112735 0.000423 -0.0172305 -0.00928707 0.00629179 2650 
2798 1 -0.00822312 0.00837566 -0.0116661 0.000423 0.0168646 0.022512 -0.0112906 2650 
65 1 -0.0120967 0.00908045 -0.0113556 0.000116 -0.0150343 -0.00322364 0.0082715 2650 
4314 1 -0.0108228 0.00915006 -0.011522 0.000423 0.0169785 -0.00769928 0.00870958 2650 
2092 1 -0.00287234 0.00896674 -0.0111061 0.000656 -0.0437836 0.00100206 -0.0436544 2650 