ITEM: TIMESTEP
8422440
ITEM: NUMBER OF ATOMS
4352
ITEM: BOX BOUNDS ff ff ff
-0.15 0.15
-0.15 0.06
-0.15 0.15
ITEM: ATOMS id type x y z radius vx vy vz density 
3266 1 -0.111881 -0.0629989 0.0507202 0.000116 -4.90109 -0.0620503 7.96896 2650 
1856 1 -0.00496942 -0.0562583 -0.0687047 0.000116 -5.16045 0.127129 0.364336 2650 
980 1 -0.00494541 -0.0471316 -0.0687805 4.2e-05 -6.52442 -0.47381 0.45957 2650 
3570 1 -0.0209916 -0.0585958 -0.0656073 0.000116 -4.21101 -1.25021 1.37227 2650 
3391 1 -0.0237382 -0.057018 -0.0647433 4.2e-05 -5.66024 0.197872 2.08658 2650 
691 1 -0.0205552 -0.047267 -0.0654247 0.000423 -6.64846 -0.226766 2.06377 2650 
3314 1 -0.0213464 -0.046189 -0.0651707 0.000423 -6.61145 -0.0552149 2.16607 2650 
844 1 -0.0279222 -0.0469441 -0.0629714 0.000116 -5.75483 -0.367825 2.56975 2650 
4288 1 -0.0292978 -0.0495355 -0.0620062 0.000423 -6.07752 0.000874432 2.86955 2650 
2819 1 -0.0473105 -0.0515055 -0.0500682 0.000116 -4.96129 -0.531643 4.6786 2650 
1316 1 -0.0478259 -0.0503066 -0.0496787 4.2e-05 -4.12185 0.462358 3.96488 2650 
4133 1 -0.0481711 -0.0480328 -0.0492402 0.000116 -5.00087 0.306247 4.89547 2650 
2775 1 -0.0599308 -0.0510986 -0.0333373 0.000423 -2.83038 0.945327 5.0724 2650 
3519 1 -0.0607059 -0.0452419 -0.0314025 0.000656 -3.47488 0.0343459 6.66739 2650 
2833 1 -0.0628637 -0.0487657 -0.0281646 0.000116 -2.61302 0.436879 5.81237 2650 
2201 1 -0.0641877 -0.0492254 -0.0234784 0.000656 -2.50272 -0.0802722 6.82901 2650 
482 1 -0.0677212 -0.0567631 -0.0107975 0.000423 -0.923684 0.00418995 6.46519 2650 
739 1 -0.0688502 -0.0556337 -0.00216926 0.000116 -0.18327 0.0600082 6.09981 2650 
2857 1 -0.0682062 -0.0461077 0.00437324 0.000656 0.376479 0.000804591 6.31546 2650 
3957 1 -0.0668789 -0.0536134 0.0140457 0.000656 1.53151 -0.0240643 7.09287 2650 
379 1 -0.0647799 -0.047102 0.0225059 0.000423 2.02017 -0.250937 5.8627 2650 
2314 1 -0.0234616 -0.046788 0.0641887 0.000656 7.0481 -0.215171 2.58986 2650 
1424 1 -0.0224779 -0.0555029 0.0651833 4.2e-05 4.85348 -1.01775 1.59517 2650 
534 1 -0.00490063 -0.0411523 -0.0687098 0.000116 -9.49279 0.189775 0.676868 2650 
1958 1 -0.00296082 -0.0405025 -0.0688201 0.000116 -6.98801 0.510221 0.301423 2650 
3256 1 -0.00174378 -0.0343579 -0.0688596 0.000116 -6.09025 0.0616247 0.17869 2650 
4342 1 -0.00348396 -0.0244922 -0.0687948 0.000116 -6.8381 -0.0319606 0.359286 2650 
1202 1 -0.00254645 -0.0147866 -0.0689101 4.2e-05 -5.6331 -0.283134 0.23499 2650 
3440 1 -0.00287181 -0.0422006 -0.068518 0.000423 -7.62696 0.0805992 0.31701 2650 
577 1 -0.00051274 -0.036003 -0.0685669 0.000423 -6.48465 0.171987 0.0433239 2650 
1890 1 -0.00257148 -0.0337517 -0.0685301 0.000423 -5.21208 -0.168572 0.21154 2650 
1471 1 -0.000531794 -0.0331286 -0.0685715 0.000423 -6.00832 0.18774 -0.00873823 2650 
2245 1 -0.00128007 -0.0321081 -0.0685581 0.000423 -6.09934 0.236647 0.1132 2650 
2559 1 -0.00325981 -0.0263588 -0.068499 0.000423 -6.92904 -0.179943 0.320015 2650 
2247 1 -0.0056334 -0.0240483 -0.068346 0.000423 -7.22025 -0.0256572 0.587327 2650 
4323 1 -0.00115331 -0.0230666 -0.0685675 0.000423 -6.94678 -0.29679 0.127155 2650 
1955 1 -0.00590532 -0.0225587 -0.0686301 0.000116 -8.40931 -0.331768 0.725213 2650 
1210 1 -0.011656 -0.0172319 -0.0679656 4.2e-05 -6.21081 0.62378 1.06985 2650 
3013 1 -0.00574672 -0.0170066 -0.068336 0.000423 -3.35812 -0.752922 0.295802 2650 
208 1 -0.0100734 -0.015282 -0.0681437 0.000116 -6.28958 -0.0565495 0.921982 2650 
921 1 -0.0012261 -0.0157264 -0.06856 0.000423 -6.43669 0.0779674 0.14521 2650 
3367 1 -0.00641409 -0.0126678 -0.0685854 0.000116 -4.95991 -1.34605 0.492486 2650 
2116 1 -0.00648335 -0.0120151 -0.0682714 0.000423 -4.04657 -0.0961865 0.358705 2650 
1031 1 -0.00664203 -0.0110165 -0.0682566 0.000423 -5.98907 -0.0246896 0.57872 2650 
4052 1 -0.00861923 -0.00855641 -0.0684178 4.2e-05 -6.65718 0.896366 0.832002 2650 
1055 1 -0.010738 -0.00652688 -0.0680422 0.000116 -3.15899 -0.166289 0.483058 2650 
327 1 -0.00920821 -0.00641249 -0.0683408 4.2e-05 -8.20083 1.3284 1.10141 2650 
1119 1 -0.00488566 -0.00511663 -0.0684027 0.000423 -4.36275 -0.0998812 0.309544 2650 
1619 1 -0.0118499 -0.0447259 -0.0678563 0.000116 -6.51232 0.660207 1.16291 2650 
672 1 -0.0081294 -0.0388883 -0.0678597 0.000656 -5.54068 -0.282649 0.672529 2650 
2256 1 -0.0121063 -0.0271683 -0.0678121 0.000116 -5.2924 -0.177561 0.941063 2650 
319 1 -0.0129883 -0.0230656 -0.0676484 0.000116 -4.8021 -0.845489 0.933019 2650 
817 1 -0.0120394 -0.0232762 -0.0675128 0.000423 -6.70672 0.0963201 1.20983 2650 
250 1 -0.0104335 -0.0210755 -0.0677796 0.000423 -6.52623 -0.184704 1.01172 2650 
2355 1 -0.0139168 -0.0190349 -0.0671516 0.000423 -6.38052 0.393353 1.32588 2650 
4320 1 -0.0109537 -0.0197357 -0.0676975 0.000423 -7.18536 -0.00715145 1.18924 2650 
4331 1 -0.0139617 -0.0145154 -0.0674543 0.000116 -4.85629 -0.160465 1.03028 2650 
1591 1 -0.0160148 -0.0332788 -0.0666816 0.000423 -6.88563 0.455873 1.66273 2650 
862 1 -0.0169572 -0.0289349 -0.066764 0.000116 -6.0966 -1.18481 1.54553 2650 
2544 1 -0.0144501 -0.0205338 -0.0667957 0.000423 -6.57536 -0.312857 0.698949 2650 
420 1 -0.0181489 -0.00599095 -0.0664495 0.000116 -5.96737 0.673644 1.60873 2650 
3349 1 -0.0209726 -0.0420402 -0.0656135 0.000116 -5.14221 0.526808 1.64087 2650 
2251 1 -0.0197687 -0.0309494 -0.0656659 0.000423 -5.42826 0.0845696 1.64804 2650 
3040 1 -0.0212272 -0.030218 -0.0655315 0.000116 -5.70364 -0.489023 1.84873 2650 
1214 1 -0.0170892 -0.0244077 -0.0661752 0.000656 -7.07581 -0.133009 1.83364 2650 
1419 1 -0.0143112 -0.0213767 -0.0662109 0.000116 -4.91768 -0.952309 2.19468 2650 
13 1 -0.019121 -0.0172055 -0.0658535 0.000423 -5.05252 0.372925 1.40447 2650 
2147 1 -0.0211458 -0.013507 -0.065525 0.000116 -6.14419 0.472819 2.00275 2650 
631 1 -0.020203 -0.00725856 -0.0658255 0.000116 -3.61711 -0.085895 0.999414 2650 
1076 1 -0.0195111 -0.00682316 -0.0660439 0.000116 -3.25539 0.0198499 0.797688 2650 
213 1 -0.0196192 -0.00702599 -0.066089 4.2e-05 -5.47532 -0.0231139 1.49426 2650 
1239 1 -0.0223734 -0.039766 -0.0648261 0.000423 -7.29285 -0.0209456 2.51223 2650 
579 1 -0.0223842 -0.0292825 -0.0648218 0.000423 -5.90906 -0.113178 2.04394 2650 
4297 1 -0.022656 -0.0277351 -0.0647272 0.000423 -6.17758 0.136718 2.17517 2650 
4132 1 -0.0233944 -0.0270197 -0.0647895 0.000116 -5.47548 0.282411 1.97743 2650 
1952 1 -0.023042 -0.0218466 -0.0649157 0.000116 -6.43098 -0.254887 2.2851 2650 
3196 1 -0.0214112 -0.0193909 -0.0651485 0.000423 -5.39579 0.0957634 1.79591 2650 
4128 1 -0.0230789 -0.0168865 -0.0649026 0.000116 -6.47061 -0.653649 2.28562 2650 
2274 1 -0.0228008 -0.0166731 -0.0649971 0.000116 -6.41788 0.0318293 2.30718 2650 
2404 1 -0.0215941 -0.00897547 -0.0653979 0.000116 -4.22649 -0.704656 1.41983 2650 
2010 1 -0.0227296 -0.0311714 -0.0647018 0.000423 -6.01497 -0.416789 2.14189 2650 
3181 1 -0.0255363 -0.0250322 -0.0640555 4.2e-05 -6.67606 0.230369 2.66945 2650 
353 1 -0.0245994 -0.0224305 -0.064014 0.000423 -6.99646 -0.115954 2.68905 2650 
588 1 -0.0230716 -0.0206792 -0.064581 0.000423 -6.07136 0.191509 2.14831 2650 
3378 1 -0.0239237 -0.00112383 -0.0645957 0.000116 -6.4391 -0.0903971 2.38027 2650 
83 1 -0.0265968 -0.041366 -0.063543 0.000116 -4.458 0.278028 1.84994 2650 
3522 1 -0.0250039 -0.0251645 -0.0638568 0.000423 -6.42365 0.050804 2.51194 2650 
4056 1 -0.0261377 -0.0237782 -0.0631498 0.000656 -6.49061 -0.148533 2.67189 2650 
4286 1 -0.0263699 -0.0227224 -0.0633053 0.000423 -5.83059 0.0515088 2.42282 2650 
2634 1 -0.0271046 -0.0146316 -0.0634059 4.2e-05 -3.45068 -0.0662237 1.4723 2650 
753 1 -0.0279178 -0.0298993 -0.062974 0.000116 -6.58208 0.606743 2.91993 2650 
3863 1 -0.0279681 -0.0178318 -0.0626155 0.000423 -5.77668 0.0668909 2.5621 2650 
419 1 -0.0286541 -0.0159502 -0.0626411 0.000116 -3.24945 -0.1715 1.49786 2650 
3248 1 -0.0288231 -0.0138511 -0.0625633 0.000116 -4.28889 0.00935706 1.9482 2650 
838 1 -0.0303904 -0.0348177 -0.061809 0.000116 -6.02192 0.806631 3.22178 2650 
3329 1 -0.0292594 -0.0322073 -0.0620238 0.000423 -5.68736 -0.0469563 2.70287 2650 
2028 1 -0.0290725 -0.026198 -0.0621108 0.000423 -5.66095 -0.0402505 2.66675 2650 
1956 1 -0.0297628 -0.00438292 -0.0621219 0.000116 -4.71431 -0.104165 2.24477 2650 
3192 1 -0.0301976 -0.0424664 -0.0613133 0.000656 -5.29241 -0.51913 2.60063 2650 
3516 1 -0.0298255 -0.0352469 -0.0614943 0.000656 -6.48522 -0.214012 3.13196 2650 
3330 1 -0.0303576 -0.0277347 -0.0614934 0.000423 -5.96966 0.230836 2.96336 2650 
4147 1 -0.0311286 -0.0262619 -0.0614487 0.000116 -5.97356 0.445602 3.02161 2650 
3741 1 -0.0310037 -0.0248832 -0.0611691 0.000423 -6.12397 0.0712678 3.08853 2650 
670 1 -0.0303776 -0.0120529 -0.0612255 0.000656 -5.43827 -0.0580016 2.72632 2650 
658 1 -0.0344842 -0.0290787 -0.0597004 4.2e-05 -5.61574 0.0193832 3.23337 2650 
3204 1 -0.0336089 -0.0231424 -0.0597766 0.000423 -5.98046 0.1272 3.36134 2650 
1335 1 -0.0344066 -0.00942205 -0.059323 0.000423 -4.81985 -0.0157119 2.77817 2650 
3096 1 -0.0334699 -0.00863694 -0.059856 0.000423 -3.37997 -0.215414 1.87728 2650 
1960 1 -0.0363213 -0.02107 -0.0585301 0.000116 -5.61053 0.532993 3.47821 2650 
2476 1 -0.0352573 -0.00912351 -0.0591776 0.000116 -4.82631 0.0679204 2.86221 2650 
3585 1 -0.0360519 -0.000471004 -0.0586961 0.000116 -4.79172 -0.0931477 2.96567 2650 
3219 1 -0.0363755 -0.0390451 -0.0581326 0.000423 -3.19703 -1.06576 2.00431 2650 
596 1 -0.0363201 -0.0154692 -0.058171 0.000423 -3.78339 -0.279731 2.35113 2650 
1990 1 -0.0377689 -0.0272031 -0.0569274 0.000656 -5.57529 0.0391994 3.71132 2650 
3539 1 -0.0378098 -0.00909459 -0.057213 0.000423 -5.01372 0.0879629 3.31281 2650 
2118 1 -0.0386046 -0.0311307 -0.0566622 0.000423 -5.13176 -0.342507 3.52817 2650 
1323 1 -0.0388344 -0.02781 -0.0562208 0.000656 -5.44646 -0.172201 3.88451 2650 
1690 1 -0.0394083 -0.0235602 -0.0561238 0.000423 -2.82985 -1.07008 2.02143 2650 
3671 1 -0.0390813 -0.0165089 -0.0563521 0.000423 -4.90689 -0.0636676 3.42068 2650 
2367 1 -0.0411721 -0.0288036 -0.0552251 0.000116 -4.54535 0.473816 3.37602 2650 
3959 1 -0.0415457 -0.0264964 -0.0545607 0.000423 -4.68757 0.146638 3.5481 2650 
432 1 -0.04196 -0.0119524 -0.0547222 4.2e-05 -3.73165 -0.153625 2.86626 2650 
2593 1 -0.0430099 -0.011188 -0.0538068 0.000116 -4.5755 -0.0833067 3.69591 2650 
1886 1 -0.0426768 -0.0101384 -0.0536814 0.000423 -4.41566 0.218497 3.48482 2650 
2371 1 -0.0438578 -0.0164078 -0.0531176 0.000116 -4.39091 0.0803952 3.63272 2650 
4373 1 -0.0440749 -0.00753007 -0.0530338 4.2e-05 -3.2911 -0.19006 2.72322 2650 
2875 1 -0.0440321 -0.0159341 -0.0525751 0.000423 -4.33298 0.0886995 3.67531 2650 
1445 1 -0.0446795 -0.026317 -0.052027 0.000423 -4.59809 -0.277026 3.95078 2650 
2160 1 -0.0456929 -0.010393 -0.0515486 0.000116 -3.81523 -0.0435658 3.37195 2650 
1849 1 -0.0461867 -0.0105087 -0.0511062 0.000116 -2.95888 -0.107292 2.67383 2650 
758 1 -0.0474949 -0.0238994 -0.0498917 0.000116 -3.19179 -0.454175 3.0327 2650 
3989 1 -0.0476433 -0.0267786 -0.0493265 0.000423 -4.62623 -0.0290699 4.45193 2650 
2051 1 -0.049153 -0.018956 -0.0482586 0.000116 -4.09895 -0.139536 4.17864 2650 
1417 1 -0.0494 -0.0293486 -0.0480075 0.000116 -4.52379 0.220612 4.61471 2650 
1503 1 -0.049991 -0.000626815 -0.0473907 0.000116 -3.95615 0.0373556 4.13823 2650 
2296 1 -0.0506578 -0.0304442 -0.0466784 0.000116 -3.70578 0.265067 4.11725 2650 
2310 1 -0.0506861 -0.0254941 -0.0465849 4.2e-05 -3.45935 1.4895 4.03291 2650 
3381 1 -0.0504566 -0.020441 -0.0468961 0.000116 -4.08858 -0.239226 4.41919 2650 
4376 1 -0.0511387 -0.0448658 -0.0462586 4.2e-05 -4.5885 -3.13651 5.09476 2650 
1924 1 -0.0509258 -0.0368023 -0.0459298 0.000423 -4.08461 0.188449 4.56799 2650 
2779 1 -0.0510398 -0.0296503 -0.0457952 0.000423 -4.42036 0.0252608 4.91221 2650 
56 1 -0.0507949 -0.025984 -0.0460737 0.000423 -4.12142 0.0213635 4.51236 2650 
1798 1 -0.0507881 -0.0251058 -0.0460811 0.000423 -4.18802 0.0557375 4.64571 2650 
3636 1 -0.0512223 -0.026579 -0.0455958 0.000423 -4.04523 -0.00171861 4.58433 2650 
4016 1 -0.0521213 -0.0242814 -0.0450354 0.000116 -4.21174 0.0775342 4.87007 2650 
1466 1 -0.0510875 -0.0225683 -0.0457494 0.000423 -3.90986 0.249859 4.39239 2650 
3718 1 -0.0522075 -0.00625537 -0.0450433 4.2e-05 -4.32673 -0.452817 5.03042 2650 
203 1 -0.023632 -0.00462952 -0.0457403 0.000116 -3.69334 -0.127984 -7.14855 2650 
2282 1 -0.0519312 -0.00101954 -0.045256 0.000116 -4.11814 -0.184139 4.70299 2650 
835 1 -0.0527792 -0.0295155 -0.0442451 0.000116 -4.30379 0.119062 5.13141 2650 
167 1 -0.0533039 -0.0389038 -0.0436285 0.000116 -4.3047 0.41442 5.24948 2650 
2395 1 -0.0530798 -0.0321465 -0.0438922 0.000116 -4.28502 -0.386144 5.21947 2650 
4068 1 -0.0528309 -0.0251015 -0.0437235 0.000423 -4.0831 -0.115307 4.99273 2650 
3960 1 -0.0528199 -0.0234549 -0.0437377 0.000423 -3.91924 -0.11234 4.71097 2650 
4325 1 -0.052971 -0.0194085 -0.0435547 0.000423 -3.96438 -0.112445 4.81066 2650 
3963 1 -0.0535303 -0.0255902 -0.0428592 0.000423 -4.0734 -0.0649219 5.08469 2650 
186 1 -0.00813571 -0.0041131 -0.0430079 0.000116 -1.2281 -0.105875 -6.39331 2650 
1378 1 -0.0542717 -0.000836659 -0.0424213 0.000116 -4.11412 -0.160762 5.23697 2650 
4204 1 -0.0554605 -0.0295738 -0.04031 0.000423 -3.73018 0.348403 5.14292 2650 
338 1 -0.0546962 -0.00787296 -0.0409344 0.000656 -4.0736 0.0269961 5.45219 2650 
625 1 -0.0561362 -0.0313674 -0.0399023 0.000116 -3.50181 0.835643 5.02194 2650 
850 1 -0.0564401 -0.0288217 -0.0394849 0.000116 -3.6568 0.514913 5.36226 2650 
1784 1 -0.0556759 -0.0268254 -0.0400094 0.000423 -3.53699 0.147436 5.04017 2650 
1407 1 -0.0552818 -0.0206123 -0.0394431 0.000116 -3.72574 -0.925407 8.16985 2650 
1640 1 -0.056258 -0.00612252 -0.0398602 4.2e-05 -1.73791 -0.12329 2.83393 2650 
3339 1 -0.0561033 -0.0262974 -0.0394306 0.000423 -3.47259 0.151776 5.07193 2650 
341 1 -0.0562396 -0.0186849 -0.0388349 0.000656 -3.71843 -0.0425371 5.36431 2650 
491 1 -0.0564011 -0.0168585 -0.0390093 0.000423 -3.54777 0.248259 5.10095 2650 
2083 1 -0.0570768 -0.00138862 -0.0386963 4.2e-05 -2.51437 -0.132974 3.81509 2650 
1436 1 -0.0568092 -0.0165364 -0.037997 0.000656 -3.58439 -0.0726684 5.33698 2650 
1593 1 -0.0574785 -0.0300974 -0.0374046 0.000423 -3.59739 -0.0351242 5.53096 2650 
2 1 -0.0571327 -0.0180952 -0.0375094 0.000656 -3.53117 -0.121659 5.40006 2650 
1833 1 -0.0577747 -0.0104374 -0.037511 0.000116 -2.31906 -0.256687 3.54912 2650 
2605 1 -0.0584522 -0.0177744 -0.0364459 0.000116 -3.5851 0.00319506 5.73539 2650 
2421 1 -0.0581744 -0.0326317 -0.0358745 0.000656 -3.57244 -0.151046 5.78254 2650 
1638 1 -0.0587736 -0.0191233 -0.035926 0.000116 -3.40768 -0.354514 5.59356 2650 
3155 1 -0.0588874 -0.0157998 -0.0357391 0.000116 -3.60077 0.0970076 5.95626 2650 
417 1 -0.0587995 -0.00556742 -0.0358834 0.000116 -1.75807 -0.142312 2.85808 2650 
2198 1 -0.0593537 -0.0306158 -0.0351047 4.2e-05 -3.20484 -0.115963 5.43535 2650 
1157 1 -0.0594649 -0.00758291 -0.03477 0.000116 -3.52736 -0.0630424 6.0302 2650 
2062 1 -0.059435 -0.00581665 -0.0348207 0.000116 -1.67749 -0.12609 2.82888 2650 
1740 1 -0.0597057 -0.038921 -0.0343542 0.000116 -2.64338 0.0239347 4.5968 2650 
2048 1 -0.0605654 -0.025845 -0.0328159 0.000116 -3.23903 -0.989785 5.97871 2650 
2340 1 -0.0606669 -0.0245224 -0.0319754 0.000423 -3.51986 -0.412021 6.63519 2650 
2832 1 -0.0609538 -0.023755 -0.0320873 0.000116 -2.23161 -1.70123 4.23202 2650 
3005 1 -0.0606004 -0.0227014 -0.0320995 0.000423 -2.76631 0.275391 5.2002 2650 
1987 1 -0.0602263 -0.0135842 -0.0323109 0.000656 -2.07729 -0.174432 3.92389 2650 
223 1 -0.060505 -0.00164345 -0.0317861 0.000656 -3.67644 -0.0685781 6.99655 2650 
4069 1 -0.0613526 -0.026605 -0.0306409 0.000423 -2.93387 -0.0530826 5.83523 2650 
3393 1 -0.0155555 -0.00662846 -0.0304638 4.2e-05 -2.18914 -0.33783 -4.51619 2650 
1185 1 -0.062002 -0.00442852 -0.030012 0.000116 -2.61088 -0.000732076 5.37852 2650 
2765 1 -0.0617051 -0.0335281 -0.0299257 0.000423 -2.87491 -0.0236714 5.96441 2650 
4305 1 -0.0617615 -0.00366534 -0.029804 0.000423 -2.54277 -0.150628 5.25968 2650 
306 1 -0.062303 -0.000358054 -0.0293828 0.000116 -2.93829 0.0605984 6.24285 2650 
390 1 -0.0630649 -0.0344241 -0.0277108 0.000116 -2.13858 0.37865 4.91723 2650 
2672 1 -0.0625445 -0.016273 -0.0281252 0.000423 -2.03686 0.0901308 4.60396 2650 
3580 1 -0.0632202 -0.0353508 -0.0273534 0.000116 -2.62815 -0.632009 6.09115 2650 
3337 1 -0.0628845 -0.0179298 -0.0273573 0.000423 -2.07007 -0.0318446 4.76715 2650 
3986 1 -0.0629136 -0.0143794 -0.0272914 0.000423 -1.95998 0.0434552 4.55715 2650 
1180 1 -0.0633808 -0.00084159 -0.0269787 0.000116 -2.33258 -0.011796 5.46183 2650 
3779 1 -0.0631909 -0.0361744 -0.0266431 0.000423 -2.88766 0.0695825 6.86248 2650 
574 1 -0.0639842 -0.0202334 -0.0246789 0.000423 -1.96311 -0.121155 5.11293 2650 
2386 1 -0.0641344 -0.0185804 -0.0251336 0.000116 -1.64273 -0.238962 4.2106 2650 
2738 1 -0.064428 -0.0160864 -0.0245774 4.2e-05 -1.62193 0.00673985 4.2892 2650 
1723 1 -0.0642495 -0.0136573 -0.0248392 0.000116 -1.59828 -0.544023 3.99982 2650 
91 1 -0.064283 -0.00144381 -0.024752 0.000116 -2.91531 0.0330352 7.56004 2650 
3626 1 -0.0640756 -0.0109024 -0.0237664 0.000656 -1.25059 -0.282823 3.52745 2650 
1447 1 -0.0645238 -0.0270761 -0.0232179 0.000423 -2.23176 0.108341 6.00359 2650 
4213 1 -0.0645132 -0.0246654 -0.02326 0.000423 -2.08069 0.0360763 5.86876 2650 
814 1 -0.0643688 -0.0205497 -0.0236572 0.000423 -1.72862 -0.371699 4.71095 2650 
3304 1 -0.0647375 -0.0225209 -0.0226261 0.000423 -1.49239 -0.453201 4.33861 2650 
3785 1 -0.0650694 -0.0212505 -0.0226044 0.000116 -1.85297 0.401057 5.35435 2650 
3586 1 -0.0654401 -0.00991963 -0.0214871 0.000116 -1.51118 -0.259042 4.6696 2650 
1716 1 -0.0640322 -0.0199915 -0.0205259 0.000116 -1.17549 0.632014 6.63709 2650 
2745 1 -0.0659196 -0.0305061 -0.0201859 4.2e-05 -1.97108 -0.894864 6.25927 2650 
416 1 -0.0658933 -0.0157537 -0.020053 0.000116 -1.32679 -0.608456 4.11299 2650 
1282 1 -0.0658152 -0.0148182 -0.0203062 0.000116 -1.55949 -0.148993 4.74909 2650 
3881 1 -0.0659607 -0.026503 -0.0187111 0.000423 -1.71076 0.0794402 6.1596 2650 
3018 1 -0.0665227 -0.0310441 -0.0166628 0.000423 -1.56929 -0.0601101 6.24724 2650 
2039 1 -0.0668628 -0.0207678 -0.0165625 0.000116 -1.13587 -0.244415 4.58086 2650 
1751 1 -0.0668926 -0.0140274 -0.0167503 4.2e-05 -1.26094 -0.096564 4.96427 2650 
2732 1 -0.066863 -0.0030263 -0.0165622 0.000116 -1.25145 0.293366 5.02421 2650 
606 1 -0.000183 0.00217735 -0.016592 0.000116 0 -0.011753 0 2650 
2520 1 -0.000332666 0.00479378 -0.0166503 4.2e-05 -0.0125271 0.0201098 0.013978 2650 
2179 1 -0.0018014 0.0231999 -0.0166436 0.000116 -0.892132 -0.193779 0.155833 2650 
2691 1 -0.0666884 -0.0345341 -0.0159873 0.000423 -1.52741 -0.0554275 6.32622 2650 
2827 1 -0.00736138 -0.00350739 -0.0162104 0.000116 -0.607941 -0.0665814 -1.33347 2650 
2172 1 -0.00305584 -0.00138334 -0.0163542 0.000116 0.0682862 0.00746542 -0.00852403 2650 
955 1 -0.0670364 -0.00015581 -0.0158467 0.000116 -1.54391 0.0231706 6.53646 2650 
30 1 -0.00112876 -0.000581035 -0.0160658 0.000423 -0.0136125 -0.0214967 0.00834717 2650 
2013 1 -0.00288358 0.00293262 -0.0159853 0.000423 -0.00154235 0.00221798 0.00156406 2650 
1679 1 -0.0039242 0.00374213 -0.0159664 0.000423 -0.00453729 0.0157155 0.00260015 2650 
2283 1 -0.00352177 0.0037739 -0.016439 0.000116 -0.00010552 0.00956354 0.000789399 2650 
2301 1 -0.004222 0.00395035 -0.016305 4.2e-05 0 -0.011753 0 2650 
3121 1 -0.000760381 0.00517002 -0.016198 0.000423 0.0292552 0.00121421 5.81941e-05 2650 
978 1 -0.00354512 0.00652837 -0.0163029 0.000116 0.0180122 -0.00353228 -0.00159853 2650 
3934 1 -0.001977 0.00693935 -0.016218 0.000116 0 -0.011753 0 2650 
3177 1 -0.000420479 0.00869373 -0.0158822 4.2e-05 0.00917698 -0.00185525 -0.00666376 2650 
289 1 -0.00286359 0.00970988 -0.0158318 0.000116 -0.00850769 0.000708308 0.0302001 2650 
1483 1 -0.000394095 0.00961319 -0.0159463 0.000423 -0.00134867 0.0112238 -0.0085204 2650 
3007 1 -0.00242287 0.0109862 -0.0162602 0.000423 -0.0135196 -0.00505473 -0.0280609 2650 
3500 1 -0.00152634 0.0107838 -0.0159669 4.2e-05 -0.0454796 -0.00333034 0.0313479 2650 
371 1 -0.000531814 0.0104806 -0.015864 0.000423 -0.00202239 0.0122439 -0.00806147 2650 
188 1 -0.00194292 0.0116699 -0.0164719 0.000116 -0.0148612 0.0228045 0.00418427 2650 
3644 1 -0.00115257 0.0128876 -0.015915 0.000423 -0.000399523 0.00418678 0.0157329 2650 
2713 1 -0.000733457 0.0129464 -0.0163412 0.000116 0.00037122 0.035974 0.00535071 2650 
2924 1 -0.00498352 0.0140426 -0.0159758 0.000116 -0.059039 0.0353164 0.00422158 2650 
148 1 -0.00453084 0.0327683 -0.0159055 0.000423 -0.15418 -0.150743 0.0286835 2650 
4010 1 -0.00474534 0.03888 -0.0159118 0.000116 -0.0944465 0.099748 0.0197066 2650 
528 1 -0.0670825 -0.0322267 -0.0156498 0.000116 -1.49696 -2.2331 6.35352 2650 
646 1 -0.0671528 -0.0026889 -0.0153463 0.000116 -1.17081 -0.21854 5.20547 2650 
759 1 -0.0671903 -0.000209231 -0.0151812 0.000116 -1.25861 -0.103315 5.53234 2650 
509 1 -0.00744424 -0.000188303 -0.015102 0.000116 -0.00480979 -0.0076817 0.0108723 2650 
736 1 -0.00609596 -0.00035617 -0.0153612 0.000116 -0.0307431 -0.0170391 0.0144389 2650 
2399 1 -0.002418 0.00239135 -0.015541 0.000116 0 -0.011753 0 2650 
3637 1 -0.00475183 0.00324443 -0.0156187 0.000423 -0.0121297 0.0118194 -0.00377228 2650 
2438 1 -0.00584986 0.00727037 -0.0150516 0.000423 -0.00468347 -0.000292455 -0.00123863 2650 
3830 1 -0.006879 0.00849135 -0.015411 4.2e-05 0 -0.011753 0 2650 
233 1 -0.00423664 0.00918641 -0.0152506 0.000423 0.0114684 -0.00558491 0.0116559 2650 
2793 1 -0.000777479 0.00937451 -0.0151559 0.000423 0.0113251 0.0911454 -0.00570485 2650 
86 1 -0.00341002 0.00986873 -0.0150002 0.000116 -0.0196067 0.0126222 0.000798653 2650 
2969 1 -0.00206757 0.0096874 -0.0150948 0.000656 -0.00775713 0.0181674 -1.8219e-05 2650 
938 1 -0.00143125 0.00988607 -0.0155149 0.000116 -0.00119823 0.000558801 -0.00633771 2650 
1839 1 -0.00140737 0.0145655 -0.0152053 0.000116 -0.0676852 0.0211351 0.0188737 2650 
2585 1 -2.56808e-05 0.0213266 -0.0155619 0.000116 -0.0221426 0.0759057 0.0070692 2650 
3279 1 -0.00131121 0.0455691 -0.0152294 0.000116 0.0698602 -0.118112 -0.0910458 2650 
945 1 -0.00583322 0.0495302 -0.0155899 0.000116 -0.192436 -0.107086 0.0844573 2650 
1781 1 -0.0670411 -0.0376991 -0.0144369 0.000423 -1.43559 -0.0810989 6.75105 2650 
269 1 -0.000456603 -0.00320202 -0.0143938 0.000423 -0.0067037 -0.0325502 -0.00931701 2650 
2666 1 -0.00589046 -0.00250014 -0.0143137 0.000423 0.0429038 -0.00888448 0.00629481 2650 
404 1 -0.0673171 -0.00184066 -0.014607 0.000116 -1.17929 -0.341299 5.47167 2650 
1053 1 -0.007469 -0.00145065 -0.014946 0.000116 0 -0.011753 0 2650 
3055 1 -0.0673581 -0.000750123 -0.0144183 0.000116 -1.42563 -0.481329 6.63146 2650 
1991 1 -0.00684846 0.000347883 -0.0145126 0.000656 -0.019376 -0.00203791 0.00870126 2650 
3239 1 -0.00554741 0.00134014 -0.0146705 0.000116 -0.0248133 -0.00752354 0.0120924 2650 
857 1 -0.00236813 0.00179853 -0.0149534 0.000116 -0.0623021 0.0193526 0.00200378 2650 
150 1 -0.00781881 0.00300265 -0.0142156 0.000423 -0.0542472 0.016714 0.0257745 2650 
220 1 -0.00346771 0.00314338 -0.01428 4.2e-05 0.00197382 0.00663681 0.00671825 2650 
1388 1 -0.00422596 0.00539091 -0.0145394 0.000116 -0.039288 0.0021603 0.0169103 2650 
3365 1 -0.002315 0.00481735 -0.014552 0.000116 0 -0.011753 0 2650 
4227 1 -0.000553541 0.00528622 -0.0149622 0.000116 0.00143204 -0.0228975 -0.0290312 2650 
1611 1 -0.00478031 0.00561471 -0.0144041 0.000116 0.0134772 -0.0209987 -0.0751807 2650 
2313 1 -0.00387755 0.0077914 -0.01426 0.000656 0.0121795 0.0249345 0.010824 2650 
581 1 -0.00563587 0.00802032 -0.0145911 0.000423 0.000441693 0.00100922 0.00165067 2650 
2092 1 -0.00664554 0.00912535 -0.0148028 0.000656 -0.00887933 -0.00148106 0.0309159 2650 
1617 1 -0.000998657 0.0100703 -0.0149834 0.000116 0.0304013 0.00375314 0.0183235 2650 
3669 1 -3.59437e-05 0.0101172 -0.0148647 0.000423 0.00311727 -0.00583333 -0.00141597 2650 
2182 1 -0.000570263 0.0108019 -0.0142915 0.000116 -0.0273815 0.022445 -0.0411396 2650 
1228 1 -0.00165564 0.0112754 -0.0149697 0.000423 -0.0026547 0.0243513 0.000515369 2650 
4231 1 -0.00117402 0.0178522 -0.0146918 0.000116 -0.0134934 0.0153003 0.0304581 2650 
2021 1 -0.00618794 0.0546807 -0.0147967 0.000423 0.132959 -0.0939981 -0.0898992 2650 
3649 1 -0.0672014 -0.0299601 -0.0136737 0.000423 -1.25429 0.086469 6.27558 2650 
623 1 -0.00756918 -0.00016351 -0.0134729 0.000116 -0.0192086 -0.00896372 0.0230222 2650 
2332 1 -0.0052546 -0.000504467 -0.013641 0.000423 -0.0114447 -0.00779769 0.00753018 2650 
2922 1 -0.00735863 0.0013861 -0.0138683 0.000116 -0.00925852 -0.000802711 0.00675368 2650 
676 1 -0.00449599 0.00230637 -0.013477 0.000423 -0.0128147 0.00889048 0.0204924 2650 
2512 1 -0.00797166 0.00275149 -0.0134797 0.000116 0.018779 -0.0192413 0.00230208 2650 
3587 1 -0.00820351 0.00351309 -0.0138606 0.000116 -0.0579635 0.0255056 0.0285778 2650 
1032 1 -0.00585846 0.00321843 -0.0134683 0.000423 0.0299121 -0.00820922 0.0127278 2650 
1684 1 -0.000120406 0.00327329 -0.0137632 0.000423 -0.00348729 -0.0115683 0.00145358 2650 
2913 1 -0.0089422 0.0048805 -0.0137402 0.000116 -0.0140945 -0.0228944 -0.00540615 2650 
1192 1 -0.00653184 0.00513047 -0.0139635 0.000116 -0.0160738 0.0171838 -0.0228619 2650 
2344 1 -0.000441919 0.00533551 -0.0140536 0.000423 0.00575909 -0.0231993 -0.0217047 2650 
2322 1 -0.00896767 0.0062189 -0.0135177 0.000656 -0.00203824 -0.0128094 0.00373659 2650 
2918 1 -0.00727119 0.00619369 -0.0139247 0.000116 0.0149777 0.0131491 0.0124233 2650 
1288 1 -0.002467 0.00612035 -0.014044 0.000116 0 -0.011753 0 2650 
3515 1 -0.00804256 0.00704269 -0.0139567 0.000656 -0.0102256 -0.00951753 -0.000478524 2650 
963 1 -0.00706188 0.00708024 -0.0139951 0.000116 0.00350227 -0.00324664 0.0156587 2650 
1618 1 -0.0099743 0.00745843 -0.0135364 0.000116 0.0059414 0.00192455 -0.00369393 2650 
1250 1 -0.00856576 0.00788005 -0.0134331 0.000423 -0.00730125 -0.00574558 -0.000431452 2650 
4257 1 -0.0079365 0.00789036 -0.0135376 0.000116 -0.00578911 -0.00907208 0.00958653 2650 
2222 1 -0.000753844 0.00770165 -0.0137755 0.000423 0.00109584 0.00172293 0.0219135 2650 
1769 1 -0.00754164 0.00856803 -0.0140107 0.000656 -0.0105422 -0.00425692 -0.00491908 2650 
1237 1 -0.00933216 0.00899371 -0.0134864 0.000423 0.00205875 0.0105454 -1.45263e-05 2650 
4190 1 -0.00859395 0.00883982 -0.014055 0.000423 -0.0108251 0.00653221 0.00770144 2650 
1476 1 -0.00723458 0.00990582 -0.0134358 0.000423 -0.00473027 0.00118609 -0.000138689 2650 
1827 1 -0.00662363 0.0101083 -0.0137439 0.000116 0.0445821 -0.0304485 -0.00868089 2650 
1409 1 -0.00044 0.00990035 -0.013868 0.000116 0 -0.011753 0 2650 
70 1 -0.00674998 0.010548 -0.0138813 0.000116 0.0420474 0.0335815 -0.0676972 2650 
2781 1 -0.00600281 0.0104088 -0.0139528 0.000423 -0.00287998 0.011096 -0.0317373 2650 
3150 1 -0.000715186 0.0108181 -0.0136829 0.000116 -0.0182263 -0.0087302 -0.0269448 2650 
3163 1 -0.00775132 0.0123077 -0.013643 0.000116 -0.0370466 0.0283549 -0.0433006 2650 
2466 1 -0.00769038 0.0198805 -0.0140664 0.000423 0.048327 0.0396991 -0.0547289 2650 
1195 1 -0.00766516 0.0285834 -0.0138168 0.000116 0.0557766 0.0782116 -0.0138054 2650 
4234 1 -0.00409183 0.0292618 -0.0136214 0.000116 -0.0277623 0.0670651 -0.0707711 2650 
2643 1 -0.00633181 0.0310253 -0.0136816 0.000656 -0.0823633 0.0688822 0.0201377 2650 
1124 1 -0.00328549 0.0359721 -0.0136029 0.000423 0.115227 0.0704534 -0.0460588 2650 
575 1 -0.0674057 -0.0312507 -0.0126285 0.000423 -1.21191 0.0573431 6.5808 2650 
1433 1 -0.0671576 -0.0295218 -0.0126866 0.000656 -1.18373 0.0642622 6.28643 2650 
2055 1 -0.0676451 -0.0285211 -0.0130047 0.000116 -1.19646 -0.285664 6.22489 2650 
3276 1 -0.067697 -0.020977 -0.0127313 0.000116 -1.01216 0.177797 5.35694 2650 
2877 1 -0.0674088 -0.00940359 -0.0126103 0.000423 -1.01962 -0.0931593 5.43376 2650 
2530 1 -0.00914674 -0.00421822 -0.0129579 0.000656 -0.0327383 -0.536327 0.0670702 2650 
4097 1 -0.00764933 -0.0030998 -0.0130956 0.000423 0.0222564 -0.0142204 -0.0225559 2650 
3576 1 -0.00523485 -0.00148498 -0.0129099 0.000116 0.0561059 0.00120064 -0.0311085 2650 
3599 1 -0.0017 -0.00121354 -0.0132798 0.000116 0.00758272 -0.00512374 -0.0536854 2650 
3191 1 -0.00877718 -0.000348185 -0.0127179 0.000656 -0.0137519 -0.00733615 -0.00341624 2650 
1022 1 -0.00354866 -0.000780201 -0.0126338 0.000423 -0.0133246 -0.00545859 0.0210834 2650 
2525 1 -0.004063 0.000347353 -0.013231 4.2e-05 0 -0.011753 0 2650 
4126 1 -0.00695686 0.000835462 -0.0129273 0.000116 -0.0261531 0.0084042 0.00402279 2650 
2619 1 -0.00591147 0.00112542 -0.0128307 0.000116 -0.0137973 -0.0204082 0.00531131 2650 
4165 1 -0.00520879 0.00141002 -0.0130357 0.000656 -0.00295906 -0.0330191 0.0101422 2650 
3880 1 -0.0103185 0.00210296 -0.0129301 0.000423 -0.0020648 -0.00583391 0.00454369 2650 
2609 1 -0.00886 0.00188735 -0.013248 0.000116 0 -0.011753 0 2650 
3917 1 -0.003984 0.00264835 -0.012703 0.000116 0 -0.011753 0 2650 
2059 1 -0.003583 0.00285735 -0.012756 0.000116 0 -0.011753 0 2650 
2474 1 -0.00216846 0.00306191 -0.0128256 0.000423 0.0307748 -0.0136667 -0.043701 2650 
3316 1 -0.00938243 0.00330371 -0.0130264 0.000423 -0.00544519 -0.0183171 -0.00879554 2650 
1171 1 -0.0076083 0.00328244 -0.0130842 0.000116 0.0131753 -0.0110464 0.0150896 2650 
4300 1 -0.00093001 0.00337311 -0.0130053 0.000423 0.0464595 0.0171624 -0.0680193 2650 
3787 1 -0.00664538 0.00415493 -0.0129475 0.000116 -0.0024271 -0.00223267 -0.0195234 2650 
3446 1 -0.00126296 0.00436818 -0.0129173 0.000423 0.014297 -0.016402 -0.00312272 2650 
1427 1 -0.002948 0.00518835 -0.013376 4.2e-05 0 -0.011753 0 2650 
3362 1 -0.0026315 0.00487091 -0.0126659 0.000116 0.000350619 -0.00253681 -0.00404217 2650 
2912 1 -0.0054621 0.00603348 -0.013146 0.000116 0.00196064 0.0151142 0.00117299 2650 
445 1 -0.0100227 0.00706256 -0.0128623 0.000656 -0.00148386 -0.000427463 0.00552151 2650 
3259 1 -0.008871 0.00675236 -0.0127396 0.000116 0.00136236 -0.0113258 0.00321419 2650 
4179 1 -0.00785095 0.00682767 -0.0129042 0.000423 -0.0070231 -0.0226882 -0.00131956 2650 
1795 1 -0.0089749 0.00745973 -0.0127593 0.000423 -0.00333027 -0.00705618 0.0037936 2650 
3364 1 -0.00663522 0.00717841 -0.0128085 0.000116 -0.00179506 0.0163753 -0.0232219 2650 