ITEM: TIMESTEP
8681592
ITEM: NUMBER OF ATOMS
4351
ITEM: BOX BOUNDS ff ff ff
-0.15 0.15
-0.15 0.06
-0.15 0.15
ITEM: ATOMS id type x y z radius vx vy vz density 
981 1 -0.0207786 -0.0478483 -0.0657489 4.2e-05 -6.74942 1.34308 2.12896 2650 
2177 1 -0.0227015 -0.0480349 -0.0650356 0.000116 -8.16051 -0.38819 2.86491 2650 
51 1 -0.0301315 -0.0501534 -0.061604 0.000423 -5.89931 0.146397 2.88405 2650 
3079 1 -0.0336399 -0.0471635 -0.0594947 0.000656 -6.5175 0.0219387 3.68435 2650 
3069 1 -0.0403659 -0.0513016 -0.0558974 4.2e-05 -5.75603 -0.47604 4.16655 2650 
1856 1 -0.0446453 -0.0550867 -0.0524574 0.000116 -3.96647 0.147269 3.38111 2650 
3409 1 -0.0478686 -0.0500609 -0.0487852 0.000656 -5.24761 0.028031 5.1806 2650 
980 1 -0.0526638 -0.0479765 -0.0445161 4.2e-05 -4.23824 0.289952 5.0012 2650 
3570 1 -0.056292 -0.0622169 -0.0397018 0.000116 -3.39204 0.155903 4.83886 2650 
3219 1 -0.0587666 -0.0471991 -0.0353465 0.000423 -1.9804 -0.866106 3.37388 2650 
3391 1 -0.0610469 -0.0550446 -0.0320709 4.2e-05 -2.81492 0.273516 5.35488 2650 
691 1 -0.0629029 -0.0487368 -0.027317 0.000423 -2.82552 -0.128114 6.45487 2650 
3314 1 -0.0632287 -0.0458858 -0.0265529 0.000423 -2.72384 0.116693 6.49819 2650 
844 1 -0.0638893 -0.0478502 -0.0257517 0.000116 -2.34639 0.145863 5.88357 2650 
3192 1 -0.0635288 -0.0455073 -0.0252037 0.000656 -2.24458 -0.213459 5.64474 2650 
4288 1 -0.0654849 -0.0493539 -0.020363 0.000423 -2.00926 0.0419804 6.5042 2650 
2819 1 -0.06887 -0.052285 0.00131991 0.000116 0.132375 0.347538 6.84454 2650 
4133 1 -0.0687668 -0.045109 0.00401163 0.000116 0.422278 0.37646 7.01208 2650 
4376 1 -0.0685018 -0.0609106 0.0079158 4.2e-05 0.830351 0.436087 7.1999 2650 
2201 1 -0.0581985 -0.049808 0.0358346 0.000656 3.87591 -0.0654935 6.28932 2650 
482 1 -0.0547496 -0.0568908 0.0412892 0.000423 3.99632 -0.0403989 5.26985 2650 
528 1 -0.0548704 -0.047989 0.0416394 0.000116 4.42839 -1.69675 5.79805 2650 
739 1 -0.0520435 -0.0556406 0.0451257 0.000116 4.00929 -0.0567215 4.64334 2650 
2857 1 -0.0448533 -0.0459266 0.0515686 0.000656 5.26234 -0.256713 4.60605 2650 
3957 1 -0.0307134 -0.0535047 0.0610073 0.000656 6.58493 0.0243222 3.33129 2650 
379 1 -0.0311321 -0.0480526 0.0610627 0.000423 5.59884 0.0310277 2.89897 2650 
1598 1 -0.0673324 -0.0201156 -0.144299 0.000116 -9.07169 0.0117434 -7.43651 2650 
3156 1 -0.00236887 -0.0409314 -0.068843 0.000116 -6.65514 0.394447 0.226707 2650 
1051 1 -0.000565435 -0.0295264 -0.0688824 0.000116 -6.31429 0.390149 0.0647751 2650 
4025 1 -0.00527133 -0.0221247 -0.0686817 0.000116 -7.15007 0.69468 0.540933 2650 
2606 1 -0.00496191 -0.0226267 -0.0687043 0.000116 -6.3615 0.188097 0.454605 2650 
3936 1 -0.00315269 -0.0133074 -0.0688862 4.2e-05 -6.61907 1.20315 0.28093 2650 
2714 1 -0.00135301 -0.0107591 -0.0688713 0.000116 -4.15054 -0.16395 0.0826726 2650 
2741 1 -0.00156147 -0.00452397 -0.0689399 4.2e-05 -5.07563 -0.0557207 0.113951 2650 
1256 1 -0.00496587 -0.0418596 -0.0683974 0.000423 -5.61412 0.136894 0.407014 2650 
152 1 -0.00931713 -0.0406498 -0.067942 0.000423 -7.13488 0.233999 0.958925 2650 
3313 1 -0.00942679 -0.0379029 -0.0679247 0.000423 -6.72465 -0.0304044 0.911063 2650 
1463 1 -0.00790507 -0.0372181 -0.0681188 0.000423 -6.21716 -0.186435 0.7603 2650 
747 1 -0.00767595 -0.0350646 -0.0684459 0.000116 -7.40369 -0.32457 0.827171 2650 
2465 1 -0.0060393 -0.0348768 -0.068309 0.000423 -7.0123 -0.00466925 0.645202 2650 
19 1 -0.00510583 -0.0347398 -0.0683878 0.000423 -6.91232 -0.157607 0.516181 2650 
3140 1 -0.00633811 -0.0340924 -0.0685907 0.000116 -6.95525 0.332139 0.661227 2650 
2271 1 -0.010047 -0.0334169 -0.0681328 0.000116 -6.95129 -0.298015 0.967243 2650 
1544 1 -0.00655502 -0.0328419 -0.0680313 0.000656 -7.29352 -7.36455e-05 0.639704 2650 
2210 1 -0.00473487 -0.0310878 -0.0681816 0.000656 -6.28905 0.116001 0.423999 2650 
4312 1 -0.00305286 -0.0253296 -0.0685095 0.000423 -6.57326 0.224628 0.293485 2650 
1169 1 -0.0101284 -0.0201473 -0.0681351 0.000116 -4.64774 -0.275116 0.690252 2650 
1130 1 -0.00808235 -0.0197972 -0.0681002 0.000423 -5.23925 -0.34852 0.620189 2650 
886 1 -0.000375938 -0.0164838 -0.068344 0.000656 -4.87602 -0.322189 0.000897772 2650 
4260 1 -0.0100678 -0.00124793 -0.0681428 0.000116 -5.64209 -0.135926 0.85047 2650 
1596 1 -0.00957695 -0.000125423 -0.0682148 0.000116 -5.52286 0.000798616 0.768642 2650 
2091 1 -0.00825696 -0.0413908 -0.0678464 0.000656 -7.14996 -0.229871 0.871418 2650 
468 1 -0.0137488 -0.0377871 -0.0671858 0.000423 -6.9939 0.166646 1.44333 2650 
693 1 -0.011151 -0.0339133 -0.067643 0.000423 -6.60819 -0.131734 1.09719 2650 
1687 1 -0.0139548 -0.0305546 -0.0671435 0.000423 -6.56569 -0.2326 1.36609 2650 
42 1 -0.0119138 -0.0281763 -0.0675187 0.000423 -5.93922 0.207104 1.1223 2650 
3748 1 -0.0114137 -0.0181653 -0.0676185 0.000423 -4.60764 -0.485211 0.730747 2650 
3350 1 -0.0146819 -0.00563177 -0.0673008 0.000116 -4.50285 -0.00620126 1.01012 2650 
2074 1 -0.0150396 -0.0054471 -0.0672217 0.000116 -4.38392 0.0592663 0.974365 2650 
3037 1 -0.0133703 -0.00360886 -0.0675727 0.000116 -5.19723 -0.244791 1.04089 2650 
2768 1 -0.0133416 -0.00229679 -0.0672668 0.000423 -5.40507 0.24618 1.10694 2650 
115 1 -0.0165574 -0.0393507 -0.066311 0.000656 -7.06645 0.0284041 1.77466 2650 
1380 1 -0.0158497 -0.0322268 -0.0670358 0.000116 -6.11623 0.398585 1.46075 2650 
2515 1 -0.0180499 -0.0283722 -0.066477 0.000116 -6.02762 0.546962 1.63577 2650 
4268 1 -0.0166412 -0.0254946 -0.0669197 4.2e-05 -7.42534 0.47909 1.84753 2650 
1050 1 -0.0174509 -0.00709153 -0.0666369 0.000116 -5.49849 -0.160038 1.44264 2650 
1903 1 -0.0194626 -0.0381487 -0.0657578 0.000423 -6.85427 0.0575649 2.03573 2650 
3090 1 -0.0175694 -0.0300068 -0.0662887 0.000423 -6.67546 0.456158 1.75719 2650 
2208 1 -0.0185791 -0.026508 -0.0657734 0.000656 -6.9601 0.0100237 1.94633 2650 
2937 1 -0.0207698 -0.0161341 -0.0656782 0.000116 -6.40735 0.26736 2.04471 2650 
1377 1 -0.0206077 -0.00767342 -0.0657296 0.000116 -5.40755 -0.509223 1.70549 2650 
2578 1 -0.0225131 -0.0417952 -0.0647781 0.000423 -7.33657 0.0597151 2.54458 2650 
4308 1 -0.0214956 -0.0394877 -0.0651223 0.000423 -6.03969 -0.104804 1.97664 2650 
2681 1 -0.0206048 -0.0199751 -0.0654095 0.000423 -5.64898 -0.148789 1.77272 2650 
2237 1 -0.0235321 -0.0405384 -0.0644139 0.000423 -6.14889 -0.0463022 2.24571 2650 
3431 1 -0.023267 -0.0324792 -0.0645114 0.000423 -6.12411 0.138694 2.21923 2650 
1046 1 -0.025293 -0.000116076 -0.0640722 0.000116 -3.93834 -0.00203961 1.5705 2650 
2527 1 -0.0246751 -4.21124e-05 -0.0643919 4.2e-05 -3.93854 0.000688492 1.49489 2650 
1499 1 -0.0261287 -0.0223011 -0.0637362 0.000116 -7.23884 -0.357491 2.9524 2650 
399 1 -0.0264111 -0.0171601 -0.0636196 0.000116 -6.00848 0.33701 2.51029 2650 
4345 1 -0.0262816 -0.0155408 -0.0636724 0.000116 -6.39075 0.40412 2.63749 2650 
343 1 -0.0271561 -0.0422796 -0.0629721 0.000423 -6.24651 -0.10749 2.71449 2650 
2862 1 -0.0264765 -0.0364159 -0.0630103 0.000656 -6.56822 -0.0400763 2.7395 2650 
4187 1 -0.0275132 -0.0357712 -0.0628178 0.000423 -6.45786 -0.0368982 2.80963 2650 
3707 1 -0.0287222 -0.00663085 -0.0626082 0.000116 -3.68361 -0.0954647 1.66869 2650 
505 1 -0.0281058 -0.00129575 -0.0628884 0.000116 -3.86837 -0.0949035 1.74436 2650 
4254 1 -0.0306537 -0.00832811 -0.0616771 0.000116 -4.2453 0.274032 2.05333 2650 
186 1 -0.0292811 -0.00492955 -0.0623511 0.000116 -3.02111 -0.0975392 1.25313 2650 
122 1 -0.0312452 -0.0312227 -0.060787 0.000656 -6.37576 0.0347056 3.26243 2650 
1612 1 -0.0316661 -0.0303474 -0.0611738 0.000116 -6.36633 0.0594655 3.28822 2650 
1111 1 -0.0298264 -0.0222308 -0.0614939 0.000656 -6.3323 -0.0347375 3.07481 2650 
2921 1 -0.0314258 -0.0120289 -0.0612915 0.000116 -5.25632 -0.299589 2.76846 2650 
3357 1 -0.0321489 -0.0109865 -0.0609185 0.000116 -4.82217 -0.541746 2.41878 2650 
3828 1 -0.0311724 -0.00941684 -0.0614999 4.2e-05 -4.49925 -0.127105 2.2594 2650 
2186 1 -0.0320986 -0.00822758 -0.0609438 0.000116 -4.04064 -0.372712 2.11542 2650 
3425 1 -0.0323362 -0.0435825 -0.0604752 0.000423 -6.14309 -0.183165 3.31191 2650 
4319 1 -0.0322771 -0.0313815 -0.0605075 0.000423 -6.3237 0.0417337 3.38836 2650 
649 1 -0.0326557 -0.0244591 -0.0606514 0.000116 -4.27531 0.293161 2.32311 2650 
335 1 -0.0315616 -0.0226995 -0.0606215 0.000656 -6.23628 -0.0308642 3.26626 2650 
1500 1 -0.0356397 -0.0291526 -0.0589462 0.000116 -5.30788 0.242024 3.23122 2650 
1055 1 -0.0359844 -0.00794541 -0.0587377 0.000116 -2.78585 -0.174327 1.67306 2650 
1392 1 -0.0371367 -0.00560047 -0.058016 0.000116 -5.30694 0.241851 3.39017 2650 
2169 1 -0.0381301 -0.0293359 -0.0573414 0.000116 -5.47274 0.324688 3.68466 2650 
164 1 -0.0383939 -0.019142 -0.0568228 0.000423 -4.83019 -0.145872 3.28745 2650 
1326 1 -0.0381755 -0.037946 -0.0566774 0.000656 -5.25656 0.0316118 3.56826 2650 
1816 1 -0.0397873 -0.0287956 -0.0562215 0.000116 -5.6858 -0.671055 3.99313 2650 
2212 1 -0.0390006 -0.0283269 -0.0561253 0.000656 -5.87513 -0.101183 4.01612 2650 
1174 1 -0.0396823 -0.0165077 -0.0563053 0.000116 -5.07947 0.112889 3.59154 2650 
2116 1 -0.0387529 -0.013155 -0.0565787 0.000423 -3.48645 -0.172954 2.35944 2650 
1119 1 -0.0394676 -0.00612537 -0.0560821 0.000423 -3.66053 -0.136591 2.59215 2650 
1249 1 -0.0404401 -0.0269284 -0.0553689 0.000423 -5.39187 0.0601353 3.94652 2650 
3891 1 -0.0406397 -0.019127 -0.0552386 0.000423 -4.51992 -0.184746 3.3389 2650 
3393 1 -0.040344 -0.00939427 -0.0557733 4.2e-05 -4.1898 -0.313327 -1.04452 2650 
2327 1 -0.0409653 -0.0309911 -0.0549992 0.000423 -5.52652 0.194552 4.09216 2650 
239 1 -0.0410452 -0.0273534 -0.0549233 0.000423 -5.26162 0.0539355 4.00095 2650 
3089 1 -0.0410363 -0.0265076 -0.054941 0.000423 -5.30855 0.0591197 4.0649 2650 
4311 1 -0.0406797 -0.0201825 -0.0552103 0.000423 -5.0001 -0.148081 3.66355 2650 
3013 1 -0.041042 -0.0182621 -0.0549399 0.000423 -4.34308 0.179392 3.26207 2650 
355 1 -0.0422195 -0.0324463 -0.0540411 0.000423 -5.46142 0.0288923 4.32231 2650 
4255 1 -0.0431484 -0.0182456 -0.0536952 0.000116 -4.68645 -1.52322 3.76291 2650 
2514 1 -0.0424048 -0.0019444 -0.0542846 0.000116 -4.76547 -0.0472645 3.70536 2650 
2052 1 -0.0449753 -0.0231575 -0.0521742 0.000116 -5.70876 -0.161348 4.92004 2650 
671 1 -0.0436264 -0.0224563 -0.0526099 0.000656 -5.50827 -0.241925 4.56026 2650 
365 1 -0.0443024 -0.0215949 -0.0523474 0.000423 -5.09979 0.25648 4.30087 2650 
4338 1 -0.0449654 -0.0126661 -0.0521843 0.000116 -4.74398 0.153418 4.08375 2650 
1076 1 -0.0443051 -0.0067175 -0.0527461 0.000116 -2.61316 0.00511321 2.18182 2650 
1202 1 -0.0457223 -0.0160525 -0.0516206 4.2e-05 -4.22661 -0.0145528 3.76512 2650 
4264 1 -0.0456102 -0.00838453 -0.0517206 4.2e-05 -4.76694 -0.424804 4.18862 2650 
2072 1 -0.0461739 -0.0377495 -0.0511168 0.000116 -5.45172 0.50991 4.92154 2650 
2790 1 -0.0456512 -0.037431 -0.0511745 0.000423 -4.87239 0.00512572 4.33238 2650 
1890 1 -0.0456902 -0.0345547 -0.0511401 0.000423 -4.4403 -0.0143133 3.96435 2650 
3000 1 -0.0457209 -0.0324743 -0.0511139 0.000423 -4.59092 0.288524 4.07172 2650 
2626 1 -0.0461741 -0.0308102 -0.0511179 0.000116 -4.8996 -0.312008 4.42659 2650 
2242 1 -0.0456602 -0.0304073 -0.0511692 0.000423 -4.93893 -0.0503916 4.38617 2650 
3574 1 -0.0466952 -0.028065 -0.0506426 0.000116 -5.4153 0.00834266 5.00634 2650 
3256 1 -0.0473551 -0.0365236 -0.050025 0.000116 -4.36899 -0.21162 4.13472 2650 
1471 1 -0.0467017 -0.0319886 -0.0502194 0.000423 -4.46409 0.0803504 4.15612 2650 
2246 1 -0.0471845 -0.0277344 -0.0497663 0.000423 -4.56699 0.0473425 4.30265 2650 
3582 1 -0.0476502 -0.0180535 -0.0497438 0.000116 -4.72517 -0.485787 4.51545 2650 
3964 1 -0.046737 -0.0169355 -0.0501856 0.000423 -4.81334 -0.256803 4.47865 2650 
1787 1 -0.0470365 -0.014039 -0.049906 0.000423 -4.76115 -0.0791864 4.48236 2650 
631 1 -0.0473473 -0.00806263 -0.0500334 0.000116 -2.75282 -0.106105 2.61735 2650 
1462 1 -0.0479264 -0.0413098 -0.0490526 0.000423 -5.73826 0.0479018 5.6311 2650 
2245 1 -0.0477637 -0.0302922 -0.0492106 0.000423 -4.42753 0.18656 4.31619 2650 
3367 1 -0.0472619 -0.0232459 -0.0489881 0.000116 -6.24258 -1.29153 3.20617 2650 
203 1 -0.0484244 -0.00568072 -0.0489907 0.000116 -2.29944 -0.121682 2.27724 2650 
2588 1 -0.0488394 -0.0189162 -0.0485767 0.000116 -5.80204 0.555711 5.82552 2650 
1568 1 -0.0489059 -0.0404974 -0.048075 0.000423 -5.78951 0.266048 5.87514 2650 
577 1 -0.0494778 -0.0341977 -0.0474869 0.000423 -4.55637 0.257143 4.72257 2650 
2865 1 -0.0486902 -0.0268876 -0.0479641 0.000656 -5.007 -0.051808 5.04452 2650 
1996 1 -0.049399 -0.0261747 -0.0475671 0.000423 -4.94918 -0.0451905 5.13278 2650 
4331 1 -0.0499747 -0.0160843 -0.0474077 0.000116 -3.45124 -0.209472 3.62549 2650 
672 1 -0.0497877 -0.0407299 -0.0468222 0.000656 -3.97677 -0.155492 4.18111 2650 
921 1 -0.0496973 -0.015313 -0.0472568 0.000423 -4.48557 0.0240001 4.72429 2650 
2827 1 -0.0214616 -0.00428158 -0.047202 0.000116 -3.22449 -0.117859 -7.09005 2650 
2256 1 -0.0510399 -0.0291248 -0.0462593 0.000116 -3.62977 -0.28681 4.01889 2650 
1031 1 -0.0510204 -0.0114671 -0.0458231 0.000423 -4.06217 -0.0822523 4.55063 2650 
2404 1 -0.0524162 -0.0153872 -0.0446932 0.000116 -2.92039 -0.817937 3.42402 2650 
4342 1 -0.0533861 -0.0247308 -0.04353 0.000116 -4.35722 -0.0270556 5.3137 2650 
4323 1 -0.0525128 -0.0251276 -0.044106 0.000423 -4.50731 -0.187847 5.38231 2650 
2037 1 -0.0541288 -0.0441953 -0.0425957 0.000116 -4.73814 0.53649 5.97201 2650 
1958 1 -0.0538285 -0.034938 -0.042982 0.000116 -4.34281 0.775712 5.50834 2650 
2559 1 -0.0537727 -0.0274046 -0.0425535 0.000423 -4.43639 -0.0591238 5.42532 2650 
2634 1 -0.0543918 -0.0113273 -0.0423584 4.2e-05 -3.05018 1.19423 3.73842 2650 
208 1 -0.0549502 -0.0158141 -0.041528 0.000116 -3.87107 -0.0716271 5.08192 2650 
13 1 -0.055002 -0.0141661 -0.0409187 0.000423 -3.19742 0.342973 4.29186 2650 
1210 1 -0.0555986 -0.0126713 -0.0407523 4.2e-05 -3.69808 0.456384 5.13842 2650 
4052 1 -0.0558261 -0.00163186 -0.0404757 4.2e-05 -3.92558 0.725037 5.46499 2650 
419 1 -0.0560409 -0.0117526 -0.0400347 0.000116 -2.98563 1.47462 4.39996 2650 
250 1 -0.0565255 -0.0226017 -0.038829 0.000423 -3.81355 -0.185429 5.55522 2650 
3440 1 -0.05706 -0.0415186 -0.0380413 0.000423 -4.29504 0.0844891 6.4366 2650 
83 1 -0.0574799 -0.0384118 -0.0379593 0.000116 -2.68437 0.421004 4.05938 2650 
2247 1 -0.0566942 -0.0240482 -0.03858 0.000423 -4.11683 0.0232884 6.05514 2650 
2705 1 -0.0572643 -0.020854 -0.0382857 0.000116 -4.19628 0.630238 6.28447 2650 
1419 1 -0.057115 -0.0189529 -0.0385076 0.000116 -3.60125 0.585327 5.33763 2650 
213 1 -0.0572681 -0.00731019 -0.0383981 4.2e-05 -3.1936 -0.0396997 4.7126 2650 
2251 1 -0.0574874 -0.0303099 -0.0373845 0.000423 -3.18256 0.0652359 4.82813 2650 
3096 1 -0.0573262 -0.0109033 -0.0376245 0.000423 -2.0745 -0.311935 3.40157 2650 
817 1 -0.058023 -0.0228447 -0.0365534 0.000423 -3.59104 -0.028918 5.68456 2650 
2355 1 -0.0579642 -0.016084 -0.036648 0.000423 -3.51296 0.295932 5.57483 2650 
3248 1 -0.0582931 -0.0138162 -0.0366922 0.000116 -2.5243 0.00606741 4.03048 2650 
862 1 -0.0586082 -0.0378756 -0.0361929 0.000116 -3.30827 -0.91917 5.38821 2650 
319 1 -0.0586663 -0.0290524 -0.0360925 0.000116 -3.59423 -0.499639 5.8424 2650 
2544 1 -0.058459 -0.0226209 -0.0358524 0.000423 -3.55965 -0.155955 5.77455 2650 
3196 1 -0.0584493 -0.0190676 -0.0358686 0.000423 -3.04243 -0.0133765 4.93662 2650 
420 1 -0.0587658 -0.0017884 -0.0359371 0.000116 -3.24726 0.311436 5.2986 2650 
3040 1 -0.0596274 -0.0336823 -0.0344914 0.000116 -3.01033 -0.324341 5.22695 2650 
4320 1 -0.0597836 -0.019997 -0.0335985 0.000423 -3.6159 -0.0521268 6.45087 2650 
4132 1 -0.0608194 -0.0250243 -0.0323425 0.000116 -3.20381 -0.153859 6.015 2650 
1955 1 -0.0611683 -0.0240041 -0.0316769 0.000116 -3.50144 0.281517 6.7649 2650 
1956 1 -0.0609322 -0.0051313 -0.0321291 0.000116 -2.45369 -0.0758831 4.65127 2650 
579 1 -0.0612495 -0.0286295 -0.0308454 0.000423 -2.88162 0.257626 5.65413 2650 
2274 1 -0.0615261 -0.0160394 -0.0309765 0.000116 -2.13367 0.319065 4.2138 2650 
2147 1 -0.0614007 -0.00998412 -0.0312265 0.000116 -2.94316 0.3584 5.77199 2650 
1591 1 -0.0613969 -0.0300244 -0.0305537 0.000423 -3.18784 0.307288 6.43026 2650 
596 1 -0.0614837 -0.0178072 -0.0303761 0.000423 -2.03252 -0.275606 4.14443 2650 
2010 1 -0.0618929 -0.0339326 -0.0295343 0.000423 -2.7661 -0.239374 5.85752 2650 
4297 1 -0.0624435 -0.0263775 -0.0283503 0.000423 -2.73378 0.184671 6.05342 2650 
1619 1 -0.0629153 -0.0389019 -0.028047 0.000116 -3.7255 0.763696 8.35862 2650 
327 1 -0.0628867 -0.000691053 -0.0282918 4.2e-05 -3.45961 -0.261363 7.67964 2650 
3330 1 -0.0630637 -0.0281266 -0.0269432 0.000423 -2.11516 -0.189254 4.89462 2650 
1214 1 -0.0626287 -0.0252713 -0.0273668 0.000656 -2.96168 -0.0672933 6.81192 2650 
4128 1 -0.0633029 -0.0224149 -0.0271616 0.000116 -2.65313 -0.631149 6.23276 2650 
1690 1 -0.0632511 -0.0301248 -0.0264997 0.000423 -2.0546 -0.614523 4.82866 2650 
1952 1 -0.0635515 -0.0235695 -0.0265748 0.000116 -2.65284 -0.14682 6.31958 2650 
1095 1 -0.0448221 -0.00408624 -0.0265894 4.2e-05 -6.88163 -0.0987066 -4.08233 2650 
588 1 -0.0636138 -0.0192024 -0.0256164 0.000423 -2.62248 0.155095 6.49646 2650 
3378 1 -0.0640275 -0.00179408 -0.0254062 0.000116 -2.55041 -0.0691025 6.40306 2650 
3863 1 -0.0638895 -0.0179761 -0.0249212 0.000423 -2.32297 -0.101204 5.97037 2650 
2530 1 -0.0186825 -0.00893591 -0.0252134 0.000656 -2.55907 -0.587605 -3.39813 2650 
3329 1 -0.0643719 -0.0320665 -0.0236468 0.000423 -2.18389 0.0754446 6.01465 2650 
2028 1 -0.064191 -0.0267683 -0.0241349 0.000423 -2.24159 -0.0842866 5.95273 2650 
670 1 -0.0640852 -0.0126912 -0.0237508 0.000656 -2.15966 -0.102902 5.81703 2650 
1335 1 -0.0642135 -0.00979766 -0.0240741 0.000423 -1.9638 -0.0735702 5.29763 2650 
4373 1 -0.0646489 -0.00919981 -0.0239942 4.2e-05 -1.50472 -0.206593 4.03734 2650 
534 1 -0.0649615 -0.0395253 -0.0229128 0.000116 -3.16721 0.186103 8.98163 2650 
3349 1 -0.0649255 -0.0340339 -0.0230142 0.000116 -2.44863 1.05252 6.89953 2650 
3522 1 -0.0644946 -0.0248551 -0.0233105 0.000423 -2.37929 0.0300542 6.56681 2650 
353 1 -0.0646675 -0.0226656 -0.0228262 0.000423 -2.35408 -0.0116088 6.64278 2650 
432 1 -0.0649643 -0.0132739 -0.0231257 4.2e-05 -1.60098 -0.1638 4.45729 2650 
2476 1 -0.0647709 -0.00874146 -0.023446 0.000116 -1.92767 0.0219349 5.3079 2650 
4286 1 -0.0649332 -0.0231052 -0.0220562 0.000423 -2.24339 -0.0488565 6.67887 2650 
3585 1 -0.0651435 -0.00159559 -0.0223862 0.000116 -1.84901 -0.170505 5.36011 2650 
3181 1 -0.0655507 -0.0221078 -0.021386 4.2e-05 -2.26243 0.458281 6.84131 2650 
753 1 -0.065649 -0.0342822 -0.0207552 0.000116 -2.1121 -1.4411 6.401 2650 
4056 1 -0.0651689 -0.0249647 -0.0205679 0.000656 -2.14648 -0.119422 6.83754 2650 
838 1 -0.0658899 -0.0278836 -0.0199544 0.000116 -1.97886 0.941987 6.46049 2650 
1849 1 -0.0657661 -0.0110735 -0.0203568 0.000116 -1.40352 0.0284999 4.26425 2650 
1239 1 -0.0657487 -0.0401579 -0.0194928 0.000423 -2.21238 -0.0726312 7.48523 2650 
4147 1 -0.0661163 -0.0224895 -0.0193216 0.000116 -1.89454 0.440493 6.45086 2650 
658 1 -0.0666826 -0.0277091 -0.0175591 4.2e-05 -1.68591 0.304818 6.26823 2650 
3741 1 -0.0663518 -0.0241606 -0.0173239 0.000423 -1.79666 0.101083 6.72662 2650 
2160 1 -0.0668331 -0.00951922 -0.0166615 0.000116 -1.41674 -0.50846 5.47852 2650 
3539 1 -0.0665194 -0.00887921 -0.0166553 0.000423 -1.52369 -0.0271777 5.89293 2650 
606 1 -0.000183 0.00207869 -0.016592 0.000116 0 -0.011753 0 2650 
2520 1 -0.000410493 0.00492299 -0.0165858 4.2e-05 0.00271487 -0.00197792 -0.0154802 2650 
3395 1 -0.000695664 0.0273146 -0.0165985 4.2e-05 -0.373207 -0.175316 -0.00254713 2650 
269 1 -0.000373599 -0.00449604 -0.0165713 0.000423 0.0874719 -0.532408 -0.418214 2650 
2172 1 -0.00248258 -0.00132067 -0.0164258 0.000116 0.0682862 0.00746542 -0.00852403 2650 
30 1 -0.00124304 -0.0007615 -0.0159957 0.000423 -0.0136125 -0.0214967 0.00834717 2650 
2013 1 -0.00289653 0.00295124 -0.0159722 0.000423 -0.00154235 0.00221798 0.00156406 2650 
2301 1 -0.00425239 0.003868 -0.0163415 4.2e-05 -0.00568605 -0.0087003 -0.00683566 2650 
1679 1 -0.00396226 0.00387404 -0.0159445 0.000423 -0.00453172 0.0157125 0.00260684 2650 
2283 1 -0.00352265 0.00385419 -0.0164324 0.000116 -0.00010552 0.00956354 0.000789399 2650 
3121 1 -0.000514811 0.00518026 -0.0161975 0.000423 0.0292403 0.00123583 8.703e-05 2650 
978 1 -0.00339391 0.00649872 -0.0163163 0.000116 0.0180122 -0.00353228 -0.00159853 2650 
3934 1 -0.001977 0.00684069 -0.016218 0.000116 0 -0.011753 0 2650 
3177 1 -0.000343438 0.00867815 -0.0159381 4.2e-05 0.00917698 -0.00185525 -0.00666376 2650 
1483 1 -0.000405417 0.00970742 -0.0160179 0.000423 -0.00134867 0.0112238 -0.0085204 2650 
3007 1 -0.00246794 0.0109552 -0.016205 0.000423 -0.00351627 -0.00337698 0.014455 2650 
371 1 -0.000548792 0.0105834 -0.0159317 0.000423 -0.00202239 0.0122439 -0.00806147 2650 
188 1 -0.00206768 0.0118613 -0.0164368 0.000116 -0.0148612 0.0228045 0.00418427 2650 
2713 1 -0.00073034 0.0132484 -0.0162963 0.000116 0.00037122 0.035974 0.00535071 2650 
2924 1 -0.00545164 0.0143325 -0.0158787 0.000116 -0.0500795 0.0331408 0.0243033 2650 
3279 1 -0.00072474 0.0445775 -0.0159938 0.000116 0.0698602 -0.118112 -0.0910458 2650 
3516 1 -0.0666378 -0.0368254 -0.0151833 0.000656 -1.64766 -0.156316 7.17938 2650 
758 1 -0.0670896 -0.0262476 -0.0156103 0.000116 -1.19968 0.0854632 5.04507 2650 
3671 1 -0.0668397 -0.0170688 -0.0153353 0.000423 -1.322 -0.0664087 5.94354 2650 
4244 1 -0.000102615 -0.00244376 -0.0150944 0.000116 -0.0436806 -0.00994679 0.0125723 2650 
509 1 -0.00748462 -0.000252791 -0.0150107 0.000116 -0.00480979 -0.0076817 0.0108723 2650 
736 1 -0.00635405 -0.000499213 -0.01524 0.000116 -0.0307431 -0.0170391 0.0144389 2650 
2399 1 -0.002418 0.00229269 -0.015541 0.000116 0 -0.011753 0 2650 
3637 1 -0.00485366 0.00334365 -0.0156504 0.000423 -0.0121297 0.0118194 -0.00377228 2650 
1611 1 -0.00466717 0.00543842 -0.0150352 0.000116 0.0134772 -0.0209987 -0.0751807 2650 
4227 1 -0.000541519 0.00509399 -0.0152059 0.000116 0.00143204 -0.0228975 -0.0290312 2650 
2438 1 -0.00588917 0.00726791 -0.015062 0.000423 -0.00468347 -0.000292455 -0.00123863 2650 
3830 1 -0.006879 0.00839269 -0.015411 4.2e-05 0 -0.011753 0 2650 
233 1 -0.00414036 0.00913952 -0.0151527 0.000423 0.0114684 -0.00558491 0.0116559 2650 
289 1 -0.00293501 0.00971583 -0.0155783 0.000116 -0.00850769 0.000708308 0.0302001 2650 
2969 1 -0.00213269 0.00983992 -0.0150949 0.000656 -0.00775713 0.0181674 -1.8219e-05 2650 
938 1 -0.00144131 0.00989076 -0.0155681 0.000116 -0.00119823 0.000558801 -0.00633771 2650 
2793 1 -0.000767844 0.0100795 -0.0152453 0.000423 -0.00879885 0.0775161 -0.0152112 2650 
3500 1 -0.00190814 0.0107559 -0.0157038 4.2e-05 -0.0454796 -0.00333034 0.0313479 2650 
3644 1 -0.00115592 0.0129227 -0.0157829 0.000423 -0.000399523 0.00418678 0.0157329 2650 
1839 1 -0.00197559 0.014743 -0.0150469 0.000116 -0.0676852 0.0211351 0.0188737 2650 
2585 1 -0.000211568 0.0219638 -0.0155025 0.000116 -0.0221426 0.0759057 0.0070692 2650 
148 1 -0.00575301 0.0314667 -0.0154099 0.000423 -0.145516 -0.155086 0.0592808 2650 
4010 1 -0.00553821 0.0397174 -0.0157463 0.000116 -0.0944465 0.099748 0.0197066 2650 
2021 1 -0.00507175 0.0538916 -0.0155514 0.000423 0.132959 -0.0939981 -0.0898992 2650 
3204 1 -0.0670394 -0.0220771 -0.0144408 0.000423 -1.45473 0.123003 6.81589 2650 
1960 1 -0.0673841 -0.0170134 -0.0142951 0.000116 -1.39373 0.419347 6.48335 2650 
1808 1 -0.0312724 -0.00994654 -0.0143582 0.000423 -4.30709 -0.709105 -2.00061 2650 
1640 1 -0.0674315 -0.00724168 -0.0144211 4.2e-05 -0.681775 -0.142975 3.2802 2650 
2666 1 -0.00553028 -0.00257473 -0.0142608 0.000423 0.0429038 -0.00888448 0.00629481 2650 
1053 1 -0.007469 -0.00154931 -0.014946 0.000116 0 -0.011753 0 2650 
1991 1 -0.00701112 0.000330775 -0.0144396 0.000656 -0.019376 -0.00203791 0.00870126 2650 
3239 1 -0.00575572 0.00127698 -0.0145689 0.000116 -0.0248133 -0.00752354 0.0120924 2650 
857 1 -0.00289115 0.00196099 -0.0149366 0.000116 -0.0623021 0.0193526 0.00200378 2650 
220 1 -0.00345114 0.0031991 -0.0142236 4.2e-05 0.00197382 0.00663681 0.00671825 2650 
3365 1 -0.002315 0.00471869 -0.014552 0.000116 0 -0.011753 0 2650 
1388 1 -0.00455578 0.00540905 -0.0143974 0.000116 -0.039288 0.0021603 0.0169103 2650 
2344 1 -0.000393571 0.00514075 -0.0142358 0.000423 0.00575909 -0.0231993 -0.0217047 2650 
581 1 -0.00563217 0.00802879 -0.0145772 0.000423 0.000441693 0.00100922 0.00165067 2650 
2092 1 -0.00666251 0.00914577 -0.0145997 0.000656 -0.00167296 0.00263094 0.0238503 2650 
86 1 -0.00357462 0.00997469 -0.0149935 0.000116 -0.0196067 0.0126222 0.000798653 2650 
70 1 -0.00639699 0.0108299 -0.0144496 0.000116 0.0420474 0.0335815 -0.0676972 2650 
2781 1 -0.00602699 0.010502 -0.0142193 0.000423 -0.00287998 0.011096 -0.0317373 2650 
1617 1 -0.000885344 0.0104793 -0.0146664 0.000116 0.00511482 0.0710113 0.047396 2650 
2182 1 -0.000800129 0.0109903 -0.0146369 0.000116 -0.0273815 0.022445 -0.0411396 2650 
1228 1 -0.00167792 0.0114798 -0.0149654 0.000423 -0.0026547 0.0243513 0.000515369 2650 
4231 1 -0.0012873 0.0179807 -0.0144361 0.000116 -0.0134934 0.0153003 0.0304581 2650 
2466 1 -0.00728467 0.0202138 -0.0145259 0.000423 0.048327 0.0396991 -0.0547289 2650 
2179 1 -0.00890503 0.021562 -0.0142688 0.000116 -0.716707 -0.19542 0.533685 2650 
2497 1 -0.00840649 0.0227987 -0.0145116 0.000116 0.26823 0.110209 -0.140993 2650 
4234 1 -0.0043249 0.0298248 -0.0142155 0.000116 -0.0277623 0.0670651 -0.0707711 2650 
2084 1 -0.00777756 0.0321611 -0.0149527 4.2e-05 0.307681 0.103105 -0.161547 2650 
945 1 -0.00744872 0.0486313 -0.0148809 0.000116 -0.192436 -0.107086 0.0844573 2650 
2118 1 -0.0671328 -0.033456 -0.0139918 0.000423 -1.30617 -0.204606 6.18406 2650 
1886 1 -0.0671475 -0.0087065 -0.0139255 0.000423 -1.16312 0.116055 5.60369 2650 
542 1 -0.0363578 -0.00370931 -0.0135096 4.2e-05 -5.2103 -0.0716819 -1.93601 2650 
3599 1 -0.00163635 -0.00125656 -0.0137305 0.000116 0.00758272 -0.00512374 -0.0536854 2650 
2332 1 -0.00535068 -0.000569928 -0.0135778 0.000423 -0.0114447 -0.00779769 0.00753018 2650 
2922 1 -0.00743635 0.00137936 -0.0138116 0.000116 -0.00925852 -0.000802711 0.00675368 2650 
150 1 -0.00827421 0.00314296 -0.0139992 0.000423 -0.0542472 0.016714 0.0257745 2650 
2512 1 -0.00781401 0.00258996 -0.0134603 0.000116 0.018779 -0.0192413 0.00230208 2650 
3587 1 -0.00869011 0.0037272 -0.0136207 0.000116 -0.0579635 0.0255056 0.0285778 2650 
4300 1 -0.00069205 0.00355597 -0.0134372 0.000423 0.0157414 0.0249973 -0.0399245 2650 
2913 1 -0.00906052 0.0046883 -0.0137856 0.000116 -0.0140945 -0.0228944 -0.00540615 2650 
1192 1 -0.00666678 0.00527473 -0.0141554 0.000116 -0.0160738 0.0171838 -0.0228619 2650 
2322 1 -0.00899182 0.00610566 -0.0134836 0.000656 -0.00299145 -0.013582 0.00409796 2650 
2918 1 -0.00714545 0.00630408 -0.0138204 0.000116 0.0149777 0.0131491 0.0124233 2650 
1288 1 -0.002467 0.00602169 -0.014044 0.000116 0 -0.011753 0 2650 
3515 1 -0.00812137 0.0069685 -0.0139634 0.000656 -0.00927244 -0.00874495 -0.000839897 2650 
963 1 -0.00703248 0.00705298 -0.0138637 0.000116 0.00350227 -0.00324664 0.0156587 2650 
1618 1 -0.00992443 0.00747459 -0.0135674 0.000116 0.0059414 0.00192455 -0.00369393 2650 
1250 1 -0.00862706 0.00783182 -0.0134367 0.000423 -0.00730125 -0.00574558 -0.000431452 2650 
4257 1 -0.0079851 0.0078142 -0.0134571 0.000116 -0.00578911 -0.00907208 0.00958653 2650 
2222 1 -0.000744645 0.00771612 -0.0135915 0.000423 0.00109584 0.00172293 0.0219135 2650 
1769 1 -0.00768405 0.00849842 -0.0139954 0.000656 -0.0159796 -0.00887711 0.00223318 2650 
2313 1 -0.0037753 0.00800072 -0.0141691 0.000656 0.0121795 0.0249345 0.010824 2650 
1237 1 -0.0093258 0.00908432 -0.0134774 0.000423 -0.00522897 0.0119397 0.00603054 2650 
4190 1 -0.00868758 0.00889636 -0.0140003 0.000423 -0.0101354 0.00703336 0.00133343 2650 
1476 1 -0.00727429 0.00991577 -0.013437 0.000423 -0.00473027 0.00118609 -0.000138689 2650 
1827 1 -0.00624936 0.00985268 -0.0138168 0.000116 0.0445821 -0.0304485 -0.00868089 2650 
1409 1 -0.00044 0.00980169 -0.013868 0.000116 0 -0.011753 0 2650 
3150 1 -0.000868196 0.0107448 -0.0139091 0.000116 -0.0182263 -0.0087302 -0.0269448 2650 
3163 1 -0.00806233 0.0125458 -0.0140065 0.000116 -0.0370466 0.0283549 -0.0433006 2650 
1717 1 -0.00292879 0.0256443 -0.0134862 0.000116 -0.014717 0.0706098 -0.0348682 2650 
1195 1 -0.00719692 0.02924 -0.0139327 0.000116 0.0557766 0.0782116 -0.0138054 2650 
2643 1 -0.00702325 0.0316036 -0.0135125 0.000656 -0.0823633 0.0688822 0.0201377 2650 
1124 1 -0.00231816 0.0365636 -0.0139896 0.000423 0.115227 0.0704534 -0.0460588 2650 
2863 1 -0.00474768 0.0482191 -0.0136835 0.000656 0.0278245 0.133951 -0.121512 2650 
3959 1 -0.0672856 -0.0249175 -0.0132488 0.000423 -1.1694 0.214104 5.86494 2650 
2367 1 -0.0677075 -0.0215841 -0.0126766 0.000116 -1.09513 1.06923 5.91863 2650 
2371 1 -0.0677214 -0.0158727 -0.0126023 0.000116 -1.05279 0.0464473 5.6337 2650 
2593 1 -0.0676356 -0.0140779 -0.0130525 0.000116 -1.08603 -0.466289 5.66263 2650 
4097 1 -0.00746248 -0.00321918 -0.013285 0.000423 0.0222564 -0.0142204 -0.0225559 2650 
3058 1 -0.00416899 -0.00346746 -0.0127528 0.000116 -0.403928 -0.0508368 -1.3076 2650 
3576 1 -0.00476384 -0.0014749 -0.0131711 0.000116 0.0561059 0.00120064 -0.0311085 2650 
3191 1 -0.00892656 -0.000414337 -0.0127682 0.000656 -0.0183475 -0.00795438 -0.00635009 2650 
623 1 -0.00773044 -0.00023876 -0.0132796 0.000116 -0.0192086 -0.00896372 0.0230222 2650 
2525 1 -0.004063 0.000248687 -0.013231 4.2e-05 0 -0.011753 0 2650 
4126 1 -0.00717642 0.000906015 -0.0128936 0.000116 -0.0261531 0.0084042 0.00402279 2650 
2619 1 -0.00602729 0.000954097 -0.0127861 0.000116 -0.0137973 -0.0204082 0.00531131 2650 
4165 1 -0.00523363 0.00113283 -0.0129506 0.000656 -0.00295906 -0.0330191 0.0101422 2650 
3880 1 -0.0103358 0.00205398 -0.012892 0.000423 -0.0020648 -0.00583391 0.00454369 2650 
2473 1 -0.00943789 0.00200705 -0.0127014 0.000423 0.0167774 -0.00661482 -0.0238345 2650 
2609 1 -0.00886 0.00178869 -0.013248 0.000116 0 -0.011753 0 2650 
3316 1 -0.00942814 0.00314993 -0.0131002 0.000423 -0.00544519 -0.0183171 -0.00879554 2650 
1032 1 -0.00560735 0.00314951 -0.0133615 0.000423 0.0299121 -0.00820922 0.0127278 2650 