ITEM: TIMESTEP
9232290
ITEM: NUMBER OF ATOMS
4349
ITEM: BOX BOUNDS ff ff ff
-0.15 0.15
-0.15 0.06
-0.15 0.15
ITEM: ATOMS id type x y z radius vx vy vz density 
312 1 -0.0319352 -0.0581999 -0.0610339 0.000116 -5.74794 0.226218 3.01596 2650 
2317 1 -0.0678446 -0.0469738 -0.00827062 0.000656 -1.02703 -0.0273976 8.43654 2650 
669 1 -0.0680923 -0.0599877 -0.00587847 0.000656 -0.638267 -0.00806284 7.25063 2650 
106 1 -0.0689374 -0.052199 -0.00168914 4.2e-05 -0.192159 0.48015 7.34104 2650 
4316 1 -0.065727 -0.0454161 0.0195545 0.000423 2.14169 0.0820318 7.18075 2650 
3812 1 -0.0658704 -0.061675 0.0201517 0.000116 3.42296 0.300599 11.1921 2650 
4035 1 -0.0648272 -0.046267 0.0232584 0.000116 2.68155 -0.045035 7.49593 2650 
1856 1 -0.0605978 -0.0523522 0.0327566 0.000116 2.51105 0.142902 4.6631 2650 
3219 1 -0.059969 -0.0580381 0.033266 0.000423 2.0077 -0.342899 3.61925 2650 
51 1 -0.055559 -0.0474922 0.0401965 0.000423 4.00698 0.140976 5.48771 2650 
983 1 -0.0536638 -0.062207 0.0433058 4.2e-05 6.8623 0.00899712 8.50389 2650 
2177 1 -0.0512614 -0.0623706 0.0450502 0.000116 7.01355 0.469558 8.13127 2650 
3079 1 -0.0407497 -0.0469755 0.0548701 0.000656 6.19631 0.0185658 4.6202 2650 
1462 1 -0.0367991 -0.0482818 0.0578616 0.000423 5.80929 -0.378858 3.83097 2650 
3391 1 -0.0320358 -0.0494455 0.0610643 4.2e-05 5.39586 0.314214 2.82738 2650 
862 1 -0.0316597 -0.0460348 0.0611772 0.000116 5.68104 0.0504938 2.93251 2650 
3409 1 -0.0273463 -0.0497861 0.0626382 0.000656 6.97114 0.0016295 3.05712 2650 
2832 1 -0.0142316 -0.0546491 0.0673979 0.000116 4.80387 -0.471224 1.02171 2650 
3570 1 -0.0101382 -0.0587265 0.0681326 0.000116 7.83086 0.238641 1.17036 2650 
753 1 -0.00867002 -0.0544196 0.0683199 0.000116 6.73381 -0.613621 0.93659 2650 
691 1 -0.00861993 -0.0492477 0.0680161 0.000423 7.13503 0.0568876 0.983256 2650 
4288 1 -0.00528322 -0.047802 0.068371 0.000423 6.95678 0.10735 0.591202 2650 
4124 1 -0.00275377 -0.0343914 -0.0688294 0.000116 -6.88221 -0.312103 0.281453 2650 
3174 1 -0.00215132 -0.0343625 -0.0689249 4.2e-05 -6.62865 0.177564 0.212788 2650 
4229 1 -0.00351233 -0.0184157 -0.0687938 0.000116 -5.9762 -0.133247 0.312289 2650 
1655 1 -0.000787051 -0.0402414 -0.0683411 0.000656 -7.81425 -0.0525093 0.0871611 2650 
483 1 -0.000947493 -0.0378247 -0.0685711 0.000423 -7.72102 0.0708053 0.0987379 2650 
1107 1 -0.00148605 -0.0334968 -0.06833 0.000656 -7.51451 -0.00363722 0.169376 2650 
2053 1 -0.00547784 -0.0294085 -0.0686633 0.000116 -6.37605 0.000775307 0.52354 2650 
3531 1 -0.00103395 -0.0268439 -0.0685702 0.000423 -7.06239 -0.129579 0.115267 2650 
3642 1 -0.00189518 -0.0261851 -0.0685519 0.000423 -6.8953 0.0498835 0.182961 2650 
2343 1 -0.00121436 -0.0254103 -0.0685674 0.000423 -7.00964 -0.088755 0.130223 2650 
1060 1 -0.00837411 -0.0246207 -0.0683704 0.000116 -8.10138 -0.473753 0.981819 2650 
228 1 -0.000969647 -0.0243207 -0.0683382 0.000656 -7.14168 0.00734133 0.10199 2650 
3514 1 -0.00303606 -0.0210589 -0.068279 0.000656 -7.64537 -0.175853 0.308157 2650 
78 1 -0.00655833 -0.0202004 -0.0685713 0.000116 -4.87842 -0.394902 0.462194 2650 
3543 1 -0.00448607 -0.0200195 -0.0684307 0.000423 -7.8473 0.042309 0.523748 2650 
29 1 -0.00573868 -0.0193146 -0.0683372 0.000423 -6.40021 -0.160396 0.514619 2650 
2166 1 -0.0101156 -0.0177695 -0.0681341 0.000116 -6.32352 -0.244839 0.929605 2650 
3708 1 -0.00892172 -0.0148903 -0.0682963 0.000116 -5.49715 -0.15481 0.744548 2650 
2996 1 -0.0094646 -0.0117569 -0.0679224 0.000423 -5.67353 -0.037793 0.690513 2650 
2607 1 -0.00641429 -0.0087805 -0.068581 0.000116 -4.53453 -0.0358783 0.425619 2650 
2130 1 -0.00311071 -0.00662093 -0.0683918 0.000423 -2.94012 -0.126016 0.897581 2650 
2822 1 -0.00682695 -0.00421057 -0.0685446 0.000116 -7.37298 0.411272 0.713115 2650 
287 1 -0.0126763 -0.0431704 -0.0676999 0.000116 -7.95035 -0.0370033 1.49974 2650 
2835 1 -0.0154922 -0.0420207 -0.0671191 0.000116 -6.43687 0.545978 1.48188 2650 
2663 1 -0.0123381 -0.0313186 -0.0674356 0.000423 -6.92766 -0.201127 1.31978 2650 
3482 1 -0.014303 -0.0296344 -0.0673828 0.000116 -6.88208 0.218657 1.48389 2650 
14 1 -0.0104494 -0.0281923 -0.0677444 0.000423 -6.64067 0.00518161 0.970561 2650 
710 1 -0.0136812 -0.0241858 -0.0671985 0.000423 -7.62806 -0.0209074 1.54611 2650 
833 1 -0.0139738 -0.0235924 -0.0674504 0.000116 -7.36787 0.140896 1.53049 2650 
406 1 -0.0140463 -0.0224984 -0.0674355 0.000116 -7.49768 0.247667 1.56896 2650 
3376 1 -0.0135676 -0.0223621 -0.0675341 0.000116 -7.00922 -0.0329999 1.39002 2650 
1560 1 -0.0127938 -0.0220312 -0.0673674 0.000423 -7.05582 0.0267336 1.36611 2650 
3066 1 -0.0148253 -0.0157563 -0.0673454 4.2e-05 -6.86883 0.388555 1.49998 2650 
269 1 -0.0139869 -0.0148072 -0.0671356 0.000423 -2.92693 -0.618407 0.63166 2650 
410 1 -0.0127316 -0.00446388 -0.0676897 0.000116 -5.38659 -0.393215 1.03889 2650 
3602 1 -0.0174436 -0.0334881 -0.0666386 0.000116 -7.67257 0.277916 2.00271 2650 
4011 1 -0.0159702 -0.0331812 -0.0670069 0.000116 -7.09758 -0.576398 1.69018 2650 
1056 1 -0.0160139 -0.0311017 -0.0669967 0.000116 -6.87615 0.184223 1.65136 2650 
3118 1 -0.0157231 -0.0315643 -0.0667508 0.000423 -6.73764 0.180085 1.594 2650 
2430 1 -0.0139837 -0.0315529 -0.0668993 0.000656 -6.88975 0.00489528 1.44121 2650 
27 1 -0.0148254 -0.028916 -0.0669562 0.000423 -6.93095 -0.356624 1.52796 2650 
1669 1 -0.0145076 -0.0279956 -0.0670255 0.000423 -7.21637 -0.0193595 1.55703 2650 
146 1 -0.0159027 -0.0274716 -0.0667082 0.000423 -7.43065 0.00274512 1.76517 2650 
4095 1 -0.0169048 -0.0239525 -0.0664614 0.000423 -6.93003 -0.00334774 1.7734 2650 
3978 1 -0.0143116 -0.0234101 -0.0670683 0.000423 -7.43804 -0.0660152 1.57752 2650 
3443 1 -0.0159271 -0.0171654 -0.0667027 0.000423 -6.87308 0.0387179 1.64916 2650 
1104 1 -0.0187087 -0.0258848 -0.0657357 0.000656 -7.0601 -0.0209715 1.99452 2650 
1325 1 -0.0166822 -0.025122 -0.0662788 0.000656 -7.00487 -0.0431965 1.72749 2650 
2800 1 -0.0194055 -0.0227402 -0.0657756 0.000423 -7.00115 -0.161545 2.06738 2650 
3577 1 -0.0208594 -0.0218694 -0.0656496 0.000116 -7.0979 0.00213743 2.254 2650 
632 1 -0.0203755 -0.0206299 -0.065802 0.000116 -7.66581 0.743172 2.36718 2650 
1068 1 -0.0188394 -0.0118627 -0.0662578 0.000116 -6.15894 0.258175 1.74965 2650 
1161 1 -0.0207652 -0.00472072 -0.0656798 0.000116 -3.21295 0.228313 1.00275 2650 
3360 1 -0.0222018 -0.0324493 -0.0652089 0.000116 -6.7393 -0.333447 2.28432 2650 
2967 1 -0.021127 -0.0205016 -0.0649999 0.000656 -7.72745 0.0325484 2.50911 2650 
4220 1 -0.022983 -0.00424996 -0.0649369 0.000116 -5.22222 -1.16326 1.83888 2650 
3041 1 -0.0243815 -0.0307372 -0.0644257 0.000116 -6.24958 0.311761 2.39121 2650 
854 1 -0.0249725 -0.020679 -0.0641985 0.000116 -7.52536 -0.315152 2.92989 2650 
1383 1 -0.0244877 -0.0177898 -0.0643843 0.000116 -6.40534 0.620666 2.42643 2650 
429 1 -0.0254849 -0.00772025 -0.0639969 0.000116 -4.08526 -0.131854 1.60068 2650 
3039 1 -0.0250271 -0.00500072 -0.0641766 0.000116 -5.6224 0.492983 2.18415 2650 
1468 1 -0.0233867 -0.00238606 -0.064467 0.000423 -6.06134 -0.0261833 2.18223 2650 
1016 1 -0.0266528 -0.033831 -0.0631874 0.000423 -6.21083 0.0107349 2.60092 2650 
947 1 -0.0272499 -0.0315517 -0.0632648 0.000116 -6.50316 0.280202 2.77408 2650 
3261 1 -0.0265676 -0.0293455 -0.063555 0.000116 -6.25129 0.368867 2.61264 2650 
2898 1 -0.026095 -0.0161274 -0.063419 0.000423 -6.69001 0.389783 2.75642 2650 
2183 1 -0.0269662 -0.00588443 -0.0633852 0.000116 -5.80042 0.575152 2.44943 2650 
1317 1 -0.0281164 -0.0449958 -0.0629654 4.2e-05 -5.8131 0.0605751 2.60236 2650 
1372 1 -0.0278219 -0.0306946 -0.0626792 0.000423 -6.35589 -0.0175404 2.82727 2650 
2576 1 -0.0282567 -0.0286416 -0.0624812 0.000423 -6.32207 0.0588915 2.85502 2650 
121 1 -0.0278935 -0.0260923 -0.0623942 0.000656 -6.71717 0.0292705 3.00156 2650 
1002 1 -0.026589 -0.0230657 -0.0629624 0.000656 -6.71644 0.0206228 2.81305 2650 
1813 1 -0.0279331 -0.0227209 -0.0626306 0.000423 -6.76828 0.219673 3.02257 2650 
856 1 -0.0284592 -0.0152146 -0.0627294 0.000116 -7.48188 0.275266 3.37352 2650 
2711 1 -0.0277238 -0.00921463 -0.0630541 0.000116 -5.82971 0.499581 2.54444 2650 
1946 1 -0.0280843 -0.00724275 -0.0628973 0.000116 -3.03807 -0.13928 1.31538 2650 
849 1 -0.0283945 -0.000876991 -0.0627593 0.000116 -4.43414 0.029098 1.97686 2650 
3418 1 -0.029602 -0.013597 -0.0618578 0.000423 -5.98713 -0.0366543 2.94424 2650 
3622 1 -0.0304233 -0.0387488 -0.0612015 0.000656 -6.71767 -0.0230956 3.29231 2650 
2702 1 -0.0323276 -0.0314683 -0.0608217 0.000116 -6.1888 0.0199193 3.19471 2650 
2002 1 -0.0307404 -0.0252355 -0.0613026 0.000423 -6.25358 0.106277 3.11564 2650 
1752 1 -0.0315301 -0.0181462 -0.0613263 4.2e-05 -5.79633 0.170833 2.97125 2650 
3734 1 -0.0309454 -0.017532 -0.060936 0.000656 -5.97096 -0.0139025 3.00518 2650 
2014 1 -0.0303254 -0.0138663 -0.0614991 0.000423 -5.80618 0.156905 2.76682 2650 
3328 1 -0.0331371 -0.0321262 -0.0600125 0.000423 -5.84433 0.285422 3.17132 2650 
1838 1 -0.0333673 -0.0293014 -0.0602255 0.000116 -5.92377 -0.208471 3.26082 2650 
1912 1 -0.0328483 -0.0254834 -0.0601885 0.000423 -6.19643 0.134681 3.3312 2650 
1915 1 -0.0318489 -0.0250375 -0.0607342 0.000423 -6.09238 0.00890976 3.15114 2650 
3633 1 -0.0320075 -0.0239111 -0.0606456 0.000423 -5.93228 0.222086 3.07159 2650 
601 1 -0.0322705 -0.0205272 -0.0605038 0.000423 -6.71556 0.173864 3.2895 2650 
175 1 -0.03367 -0.0187485 -0.0600894 0.000116 -5.09532 -0.463742 2.87452 2650 
822 1 -0.0317837 -0.0181987 -0.0607682 0.000423 -5.95014 0.0017664 3.08401 2650 
1364 1 -0.0328604 -0.0157177 -0.0601869 0.000423 -4.58976 0.330726 2.55905 2650 
2398 1 -0.0335616 -0.013273 -0.0601264 0.000116 -4.45676 -0.285791 2.43196 2650 
715 1 -0.0328598 -0.0069375 -0.060156 0.000423 -3.23383 -0.102972 1.65897 2650 
2192 1 -0.0328939 -0.000628641 -0.0606065 4.2e-05 -2.9544 0.118656 1.63345 2650 
4009 1 -0.0348828 -0.0445005 -0.0593985 0.000116 -5.13476 -0.188566 3.03545 2650 
476 1 -0.0340153 -0.0306732 -0.059514 0.000423 -6.18776 0.179889 3.54867 2650 
4021 1 -0.035005 -0.0285279 -0.0593039 0.000116 -5.60225 -0.163213 3.39854 2650 
3540 1 -0.0334701 -0.0280676 -0.059811 0.000423 -6.09864 -0.0653425 3.39981 2650 
4309 1 -0.0335525 -0.0271013 -0.0597721 0.000423 -6.04378 -0.0737491 3.38614 2650 
4082 1 -0.0340124 -0.0174937 -0.0595411 0.000423 -5.31205 -0.477648 2.96689 2650 
711 1 -0.0337049 -0.0142385 -0.0596965 0.000423 -5.02197 -0.0206766 2.83141 2650 
2599 1 -0.0352942 -0.0251804 -0.0591477 0.000116 -6.49282 0.432385 3.90632 2650 
4366 1 -0.0352911 -0.0242444 -0.0591495 0.000116 -6.40682 -0.272776 3.85536 2650 
3947 1 -0.0343995 -0.0228693 -0.0590477 0.000656 -6.23069 -0.0973356 3.6568 2650 
3933 1 -0.0359499 -0.0192663 -0.0587577 0.000116 -5.83192 0.147861 3.55371 2650 
2818 1 -0.0361017 -0.0191163 -0.0586642 0.000116 -5.9734 -0.0365295 3.67369 2650 
34 1 -0.034757 -0.0177422 -0.0591076 0.000423 -5.53139 -0.340138 3.26264 2650 
2429 1 -0.0343159 -0.0165509 -0.059097 0.000656 -4.5138 0.110346 2.5697 2650 
3265 1 -0.0355669 -0.000116138 -0.0589871 0.000116 -4.90051 -0.00349348 3.04515 2650 
1964 1 -0.0376819 -0.027554 -0.0576633 0.000116 -5.1208 -0.17391 3.33591 2650 
1075 1 -0.0376109 -0.0244101 -0.0577096 0.000116 -6.3251 -0.226535 4.12427 2650 
3656 1 -0.0365637 -0.0197261 -0.0580168 0.000423 -6.06427 -0.221279 3.84806 2650 
1995 1 -0.0361296 -0.0187017 -0.0582878 0.000423 -5.85138 -0.127183 3.65114 2650 
661 1 -0.0379159 -0.0378017 -0.0568644 0.000656 -6.14317 -0.0148036 4.09882 2650 
3464 1 -0.0386874 -0.0242877 -0.0569937 0.000116 -5.92384 -0.0886167 4.01842 2650 
4250 1 -0.0377965 -0.012912 -0.057588 0.000116 -4.76457 0.293569 3.1263 2650 
3058 1 -0.0383406 -0.00413898 -0.0572277 0.000116 -2.63454 0.0488575 1.74337 2650 
1735 1 -0.03852 -0.00011602 -0.0571071 0.000116 -4.87208 0.00150315 3.28406 2650 
235 1 -0.0392822 -0.024405 -0.0562126 0.000423 -5.91318 -0.169588 4.11918 2650 
4023 1 -0.0391751 -0.00333734 -0.0566597 0.000116 -4.06671 -0.168305 2.8072 2650 
201 1 -0.0401051 -0.0353338 -0.0560053 0.000116 -6.22323 -0.872395 4.4814 2650 
2813 1 -0.0407813 -0.0258101 -0.0555147 0.000116 -5.95058 -0.197892 4.37578 2650 
1231 1 -0.0416494 -0.0285523 -0.0544825 0.000423 -4.09655 -0.289549 3.1471 2650 
1613 1 -0.0413574 -0.0186509 -0.0550868 0.000116 -4.38777 -1.39981 3.29948 2650 
4164 1 -0.0413797 -0.00352296 -0.0551626 4.2e-05 -3.80839 -0.233117 2.85503 2650 
2396 1 -0.0421443 -0.000116024 -0.0544873 0.000116 -3.64218 -0.000896037 2.83118 2650 
2538 1 -0.041466 -0.012447 -0.05433 0.000656 -4.55809 0.0649634 3.48421 2650 
4177 1 -0.043572 -0.0237888 -0.0529567 0.000423 -5.41964 -0.152387 4.44754 2650 
2451 1 -0.043243 -0.0212223 -0.0532258 0.000423 -5.0691 0.0401743 4.11718 2650 
1606 1 -0.0441279 -0.0111165 -0.0528945 0.000116 -4.97382 -0.48975 4.15461 2650 
3034 1 -0.0440883 -0.00914182 -0.0529277 0.000116 -4.26046 -0.0688195 3.53732 2650 
3527 1 -0.0443481 -0.0192346 -0.0523086 0.000423 -5.44309 0.448151 4.61553 2650 
1030 1 -0.0448497 -0.0339731 -0.05188 0.000423 -4.7253 -0.0307659 4.10427 2650 
2545 1 -0.0447 -0.0244481 -0.052008 0.000423 -5.5495 0.153772 4.77213 2650 
3817 1 -0.0451501 -0.00512289 -0.0520236 0.000116 -4.27388 0.699451 3.70662 2650 
4212 1 -0.0456982 -0.0345905 -0.0511328 0.000423 -4.70527 -0.230654 4.19829 2650 
1116 1 -0.0463499 -0.0295548 -0.0505446 0.000423 -5.26916 0.111418 4.8283 2650 
1712 1 -0.0468319 -0.0328863 -0.0505163 0.000116 -4.13018 -0.477364 3.82432 2650 
2670 1 -0.0466066 -0.0311237 -0.0503085 0.000423 -4.98989 -0.00628255 4.58983 2650 
1020 1 -0.0469847 -0.0208261 -0.049954 0.000423 -4.60046 0.339649 4.31961 2650 
2938 1 -0.0468631 -0.0178111 -0.0504856 0.000116 -4.18967 -0.0952083 3.8884 2650 
1916 1 -0.0471455 -0.0145442 -0.0498022 0.000423 -4.67136 0.0796083 4.41929 2650 
4074 1 -0.0468873 -0.00134474 -0.050045 0.000423 -3.75582 -0.0693714 3.48553 2650 
1675 1 -0.047685 -0.0229553 -0.0492852 0.000423 -6.29181 -0.231239 6.0726 2650 
3725 1 -0.0483619 -0.00767641 -0.0491503 4.2e-05 -2.88046 -0.143749 2.862 2650 
1054 1 -0.0479854 -0.00350093 -0.049421 0.000116 -4.29702 -0.00176935 4.15826 2650 
1877 1 -0.0484763 -0.0243712 -0.0481779 0.000656 -5.32467 -0.0534666 5.33653 2650 
1224 1 -0.0480981 -0.0201112 -0.0488827 0.000423 -4.58059 0.158451 4.49979 2650 
3691 1 -0.0491816 -0.0146467 -0.0482282 0.000116 -5.24119 0.767833 5.39254 2650 
2480 1 -0.0490062 -0.0107009 -0.0484055 0.000116 -3.72235 0.135604 3.85961 2650 
3572 1 -0.048516 -0.000338743 -0.0488994 0.000116 -4.17035 -0.0811579 4.14314 2650 
3385 1 -0.0494386 -0.0290945 -0.0479674 0.000116 -5.16723 -0.0941821 5.32088 2650 
2162 1 -0.0497007 -0.0227027 -0.0476953 0.000116 -4.56057 0.132164 4.78285 2650 
1792 1 -0.0489371 -0.0112466 -0.0480436 0.000423 -4.09723 -0.0809742 4.29814 2650 
293 1 -0.0493788 -0.00981991 -0.0480251 0.000116 -4.1022 0.0342354 4.24775 2650 
2081 1 -0.0504985 -0.0299987 -0.0469589 4.2e-05 -4.54748 -0.0567958 4.89178 2650 
2012 1 -0.050001 -0.0136518 -0.0469132 0.000423 -3.62692 -0.343103 3.84175 2650 
1094 1 -0.050383 -0.0126598 -0.047064 4.2e-05 -3.56096 0.831334 3.81078 2650 
1410 1 -0.0504062 -0.0104308 -0.0469361 0.000116 -3.52227 -0.108329 3.82472 2650 
3351 1 -0.0510221 -0.0362829 -0.0462788 0.000116 -3.46233 1.31012 3.80948 2650 
21 1 -0.0509135 -0.0328054 -0.0459439 0.000423 -4.25724 0.131911 4.72576 2650 
1878 1 -0.0513921 -0.0416678 -0.0450575 0.000656 -5.02021 0.0322432 5.72999 2650 
392 1 -0.0514914 -0.0138632 -0.0457455 0.000116 -3.74914 0.222984 4.04026 2650 
1863 1 -0.0520644 -0.00513036 -0.0451929 4.2e-05 -3.44547 -0.197564 3.89567 2650 
1206 1 -0.0525795 -0.0362951 -0.0446016 4.2e-05 -5.1235 -0.377304 5.67431 2650 
3650 1 -0.0520546 -0.0361179 -0.0446454 0.000423 -4.57815 -0.0476234 5.32538 2650 
1058 1 -0.0526417 -0.0227237 -0.0444274 0.000116 -3.96292 -0.0482521 4.69385 2650 
4110 1 -0.0519319 -0.0175714 -0.0447861 0.000423 -3.56689 -0.496036 4.19612 2650 
502 1 -0.0524454 -0.000199778 -0.0446595 0.000116 -3.79665 -0.0271976 4.44715 2650 
3946 1 -0.0532142 -0.0307609 -0.0438563 4.2e-05 -4.3962 -0.00101802 5.33454 2650 
4017 1 -0.0533087 -0.0259627 -0.0436253 0.000116 -4.21745 0.563963 5.14877 2650 
2337 1 -0.0525443 -0.0222725 -0.0440686 0.000423 -4.08849 -0.069262 4.8694 2650 
1841 1 -0.0534013 -0.0411742 -0.0429947 0.000116 -3.98314 -0.297487 8.83665 2650 
2821 1 -0.0535274 -0.00905174 -0.0433437 0.000116 -3.8345 0.712105 4.89701 2650 
245 1 -0.0540166 -0.0242637 -0.0422514 0.000423 -4.45929 -0.064316 5.69518 2650 
3547 1 -0.0545704 -0.0314808 -0.0415 0.000423 -4.36143 0.0334292 5.63592 2650 
549 1 -0.055529 -0.0324091 -0.0408369 4.2e-05 -4.3447 0.108445 5.90548 2650 
524 1 -0.0557038 -0.0127304 -0.0405231 0.000116 -2.63212 0.23495 3.62941 2650 
2651 1 -0.0556669 -0.0319352 -0.0400077 0.000423 -4.02159 -0.318753 5.66506 2650 
2858 1 -0.055617 -0.0298062 -0.0396775 0.000656 -4.16923 0.0860612 5.90144 2650 
4380 1 -0.056176 -0.00173905 -0.0399932 4.2e-05 -3.34632 -0.247153 4.72196 2650 
3549 1 -0.0561957 -0.0214602 -0.0393061 0.000423 -3.76962 0.156808 5.39219 2650 
1721 1 -0.0575597 -0.036302 -0.0378374 0.000116 -3.47682 -0.176028 5.2403 2650 
1290 1 -0.0578046 -0.0135857 -0.0374657 0.000116 -2.77349 0.374262 4.34819 2650 
3348 1 -0.0577621 -0.00819915 -0.0375307 0.000116 -2.74673 -0.396892 4.23496 2650 
4100 1 -0.0572763 -0.00201578 -0.0377138 0.000423 -3.23664 -0.00962002 4.90364 2650 
4249 1 -0.0577863 -0.000163123 -0.0374932 0.000116 -3.22769 -0.0111051 4.95659 2650 
2816 1 -0.0584925 -0.0235648 -0.0363803 0.000116 -3.65448 -0.13428 5.86741 2650 
1474 1 -0.058003 -0.0232876 -0.036587 0.000423 -3.66298 -0.216145 5.77438 2650 
2803 1 -0.0587627 -0.0203505 -0.0359445 0.000116 -3.28739 -0.523066 5.36909 2650 
3603 1 -0.0589093 -0.00569084 -0.0357028 0.000116 -3.1858 -0.267886 5.22741 2650 
2143 1 -0.0594063 -0.019083 -0.03426 0.000423 -2.17402 -0.225 3.75305 2650 
204 1 -0.059618 -0.0160024 -0.0345067 0.000116 -4.83073 0.228893 8.35018 2650 
1047 1 -0.0597915 -0.00339092 -0.0342048 0.000116 -2.63614 0.00315978 4.60748 2650 
789 1 -0.0598609 -0.0105656 -0.0334632 0.000423 -2.49251 -0.342838 4.45463 2650 
1177 1 -0.0600189 -0.00302263 -0.0338042 0.000116 -2.73823 0.0743016 4.87462 2650 
3862 1 -0.0603699 -0.0213018 -0.032533 0.000423 -3.33164 0.0448268 6.25578 2650 
4303 1 -0.0609409 -0.0157042 -0.0314517 0.000423 -3.057 0.137531 5.91353 2650 
1008 1 -0.0614865 -0.0127478 -0.0303723 0.000423 -1.99307 -0.232549 3.95431 2650 
2501 1 -0.061643 -0.00831259 -0.0307446 0.000116 -2.12165 1.02157 4.23125 2650 
4097 1 -0.0148548 -0.00536834 -0.0303601 0.000423 -2.00229 -0.23749 -4.20446 2650 
3640 1 -0.061704 -0.0120003 -0.0299268 0.000423 -1.86324 -0.0238095 3.83969 2650 
1333 1 -0.0621124 -0.0205934 -0.0290707 0.000423 -3.07313 0.0612154 6.51471 2650 
4019 1 -0.0630264 -0.0103363 -0.0277988 0.000116 -2.02504 0.677408 4.54568 2650 
3358 1 -0.0632947 -0.0209607 -0.027181 0.000116 -2.52247 0.493576 5.83303 2650 
868 1 -0.0633754 -0.00725443 -0.0269926 0.000116 -2.5297 0.637867 5.88994 2650 
3887 1 -0.0634033 -0.0247749 -0.0261325 0.000423 -2.4628 0.0555005 5.92082 2650 
1829 1 -0.0165975 -0.005946 -0.0262754 0.000116 -2.34562 -0.307093 -3.48981 2650 
1944 1 -0.0640192 -0.0403297 -0.025427 0.000116 -2.30442 0.104214 5.7869 2650 
2708 1 -0.0637999 -0.0268931 -0.025973 0.000116 -2.27055 0.572761 5.53905 2650 
1341 1 -0.063446 -0.0256136 -0.0260294 0.000423 -2.41761 0.048221 5.87879 2650 
991 1 -0.0636623 -0.0328141 -0.0248682 0.000656 -2.53144 0.00829375 6.40851 2650 
2714 1 -0.0643825 -0.00941689 -0.024493 0.000116 -2.02288 0.889426 5.3651 2650 
1805 1 -0.0641293 -0.0337764 -0.024299 0.000423 -2.4218 -0.0734201 6.43496 2650 
311 1 -0.0645082 -0.0308563 -0.024159 0.000116 -1.98659 -0.416822 5.29178 2650 
4006 1 -0.0646325 -0.00534601 -0.0238244 0.000116 -2.11741 0.050824 5.70618 2650 
791 1 -0.064521 -0.0133749 -0.023238 0.000423 -2.30334 0.201039 6.338 2650 
4306 1 -0.0647867 -0.0138512 -0.0224873 0.000423 -2.21674 0.154428 6.36778 2650 
2827 1 -0.0651021 -0.00396687 -0.0225099 0.000116 -1.21921 0.0551525 3.44512 2650 
2530 1 -0.0651675 -0.0171445 -0.0205771 0.000656 -1.16013 -0.302275 3.45588 2650 
1514 1 -0.065683 -0.0125551 -0.0207057 0.000116 -2.13511 0.422579 6.49931 2650 
688 1 -0.0655332 -0.0237467 -0.0201775 0.000423 -1.88711 0.218937 6.10999 2650 
3422 1 -0.0655551 -0.014897 -0.0201031 0.000423 -2.05166 -0.288054 6.48474 2650 
1227 1 -0.0657686 -0.0144838 -0.0193542 0.000423 -1.91707 -0.00075263 6.47083 2650 
1164 1 -0.0660548 -0.0119316 -0.019435 0.000116 -1.72788 0.231723 5.84822 2650 
455 1 -0.0660468 -0.0286529 -0.0183296 0.000423 -1.8824 -0.0208903 6.88882 2650 
160 1 -0.066137 -0.0257861 -0.0180857 0.000423 -1.5373 -0.0986076 5.83706 2650 
2224 1 -0.0661825 -0.0211275 -0.0179682 0.000423 -1.87075 0.119424 6.8876 2650 
169 1 -0.0664649 -0.0191691 -0.0180932 0.000116 -1.64989 0.614746 5.99371 2650 
4237 1 -0.0521057 -0.00433599 -0.0179687 0.000116 -8.08418 -0.11323 -2.78811 2650 
1572 1 -0.0663757 -0.025751 -0.0172399 0.000423 -1.50154 -0.114305 5.84962 2650 
1208 1 -0.0667922 -0.0111845 -0.0171276 4.2e-05 -1.84751 0.689954 6.97811 2650 
1934 1 -0.0668274 -0.00266343 -0.0166978 0.000116 -1.60986 0.02825 6.34916 2650 
606 1 -0.000183 0.00186902 -0.016592 0.000116 0 -0.011753 0 2650 
2520 1 -0.000362062 0.0048877 -0.0168619 4.2e-05 0.00271487 -0.00197792 -0.0154802 2650 
2084 1 -0.00192067 0.034007 -0.0167321 4.2e-05 0.342941 0.102971 -0.0143111 2650 
66 1 -0.00166377 0.0343675 -0.0165861 0.000116 -0.217432 -0.0137213 0.0406838 2650 
2148 1 -0.0669776 -0.0349344 -0.0160358 0.000116 -1.64987 0.0340823 6.94485 2650 
2074 1 -0.0669147 -0.00634239 -0.0163217 0.000116 -1.0256 -0.0881469 4.09562 2650 
2172 1 -0.0012644 -0.00118749 -0.0165778 0.000116 0.0682862 0.00746542 -0.00852403 2650 
30 1 -0.00148587 -0.00114499 -0.0158468 0.000423 -0.0136125 -0.0214967 0.00834717 2650 
2013 1 -0.00292404 0.00299081 -0.0159443 0.000423 -0.00154235 0.00221798 0.00156406 2650 
2301 1 -0.00428188 0.00373967 -0.0162816 4.2e-05 -0.00116259 -0.0070103 0.00459775 2650 
1679 1 -0.0040431 0.00415434 -0.015898 0.000423 -0.00453172 0.0157125 0.00260684 2650 
2283 1 -0.00352453 0.00402479 -0.0164183 0.000116 -0.00010552 0.00956354 0.000789399 2650 
1611 1 -0.00434294 0.00507656 -0.0161759 0.000116 0.0513704 -0.0152435 0.0155029 2650 
978 1 -0.00307258 0.0064357 -0.0163449 0.000116 0.0180122 -0.00353228 -0.00159853 2650 
3934 1 -0.001977 0.00663102 -0.016218 0.000116 0 -0.011753 0 2650 
3177 1 -0.000179727 0.00864506 -0.016057 4.2e-05 0.00917698 -0.00185525 -0.00666376 2650 
1483 1 -0.000429477 0.00990764 -0.0161699 0.000423 -0.00134867 0.0112238 -0.0085204 2650 
3007 1 -0.00253067 0.010895 -0.0159471 0.000423 -0.00351627 -0.00337698 0.014455 2650 
371 1 -0.000508302 0.0110186 -0.0163754 0.000423 0.0024809 0.0249977 -0.0257035 2650 
188 1 -0.00233279 0.0122682 -0.0163622 0.000116 -0.0148612 0.0228045 0.00418427 2650 
2713 1 -0.000723718 0.0138901 -0.0162008 0.000116 0.00037122 0.035974 0.00535071 2650 
2497 1 -0.00342699 0.0246764 -0.0163799 0.000116 0.288973 0.100779 -0.0719928 2650 
2021 1 -0.00226796 0.0522256 -0.0163082 0.000423 0.167293 -0.0932069 -0.0108047 2650 
2641 1 -0.0666298 -0.0285398 -0.0151724 0.000656 -1.61715 -0.167583 7.14813 2650 
1670 1 -0.0668433 -0.0269149 -0.0153018 0.000423 -1.46599 -0.120384 6.52985 2650 
2248 1 -0.0668537 -0.0182337 -0.0152797 0.000423 -1.60168 0.097389 6.99502 2650 
2741 1 -0.0671539 -0.00478016 -0.015664 4.2e-05 -1.20865 0.0270759 4.97443 2650 
1393 1 -0.067136 -0.0034474 -0.0154118 0.000116 -1.34091 0.964616 5.81017 2650 
2399 1 -0.002418 0.00208302 -0.015541 0.000116 0 -0.011753 0 2650 
3637 1 -0.00503771 0.00355863 -0.015654 0.000423 -0.00704251 0.0124689 0.006236 2650 
4227 1 -0.000515973 0.00468552 -0.0157238 0.000116 0.00143204 -0.0228975 -0.0290312 2650 
2438 1 -0.00597272 0.0072627 -0.0150841 0.000423 -0.00468347 -0.000292455 -0.00123863 2650 
3830 1 -0.006879 0.00818302 -0.015411 4.2e-05 0 -0.011753 0 2650 
289 1 -0.00308678 0.00972846 -0.0150395 0.000116 -0.00850769 0.000708308 0.0302001 2650 
2969 1 -0.00227107 0.010164 -0.0150953 0.000656 -0.00775635 0.0181659 -1.78346e-05 2650 
938 1 -0.00146268 0.00990073 -0.0156812 0.000116 -0.00119823 0.000558801 -0.00633771 2650 
3500 1 -0.00272773 0.0107121 -0.0151486 4.2e-05 -0.0484689 0.00233787 0.0298831 2650 
70 1 -0.0056469 0.011429 -0.0156573 0.000116 0.0420474 0.0335815 -0.0676972 2650 
2793 1 -0.000998506 0.0112377 -0.015219 0.000423 -0.0129328 0.063764 0.00213141 2650 
2182 1 -0.00133144 0.0117003 -0.0153038 0.000116 -0.00770269 0.0448602 -0.0445042 2650 
3644 1 -0.00116305 0.0129974 -0.0155023 0.000423 -0.000399523 0.00418678 0.0157329 2650 
2924 1 -0.00634503 0.0149237 -0.0154452 0.000116 -0.0500795 0.0331408 0.0243033 2650 
2466 1 -0.0063438 0.0208841 -0.0151999 0.000423 0.0618857 0.0331724 -0.00268308 2650 
2585 1 -0.000606577 0.0233179 -0.0153764 0.000116 -0.0221426 0.0759057 0.0070692 2650 
3395 1 -0.00704239 0.0239891 -0.0152132 4.2e-05 -0.340151 -0.195356 0.142773 2650 
4234 1 -0.00482016 0.0310212 -0.015478 0.000116 -0.0277623 0.0670651 -0.0707711 2650 
4010 1 -0.00716696 0.0414751 -0.0152476 0.000116 -0.0880314 0.0972602 0.0365275 2650 
2863 1 -0.00418078 0.0505807 -0.0156648 0.000656 0.0828395 0.112062 0.0238951 2650 
2018 1 -0.0669645 -0.0406156 -0.0147888 0.000423 -1.47077 -0.385389 6.61283 2650 
2123 1 -0.0669506 -0.0228954 -0.0148501 0.000423 -1.56901 -0.0692712 7.01967 2650 
3282 1 -0.0673366 -0.00365057 -0.0148612 4.2e-05 -1.26123 0.1806 5.77274 2650 
4244 1 -0.000881846 -0.0026212 -0.0148701 0.000116 -0.0436806 -0.00994679 0.0125723 2650 
1053 1 -0.007469 -0.00175898 -0.014946 0.000116 0 -0.011753 0 2650 
736 1 -0.00690248 -0.000803179 -0.0149824 0.000116 -0.0307431 -0.0170391 0.0144389 2650 
3599 1 -0.00150108 -0.00134796 -0.0146882 0.000116 0.00758272 -0.00512374 -0.0536854 2650 
509 1 -0.00757042 -0.000389827 -0.0148167 0.000116 -0.00480979 -0.0076817 0.0108723 2650 
1991 1 -0.00735677 0.00029442 -0.0142843 0.000656 -0.019376 -0.00203791 0.00870126 2650 
3239 1 -0.00619837 0.00114276 -0.0143532 0.000116 -0.0248133 -0.00752354 0.0120924 2650 
857 1 -0.00400258 0.00230623 -0.0149008 0.000116 -0.0623021 0.0193526 0.00200378 2650 
3365 1 -0.002315 0.00450902 -0.014552 0.000116 0 -0.011753 0 2650 
2344 1 -0.000290833 0.00472689 -0.014623 0.000423 0.00575909 -0.0231993 -0.0217047 2650 
1192 1 -0.00695352 0.00558128 -0.0145633 0.000116 -0.0160738 0.0171838 -0.0228619 2650 
581 1 -0.00562429 0.00804679 -0.0145478 0.000423 0.000441693 0.00100922 0.00165067 2650 
233 1 -0.00393577 0.00903989 -0.0149448 0.000423 0.0114684 -0.00558491 0.0116559 2650 
86 1 -0.00392438 0.0101999 -0.0149792 0.000116 -0.0196067 0.0126222 0.000798653 2650 
2781 1 -0.00607837 0.0106999 -0.0147854 0.000423 -0.00287998 0.011096 -0.0317373 2650 
3150 1 -0.00119334 0.010589 -0.0143898 0.000116 -0.0182263 -0.0087302 -0.0269448 2650 
1228 1 -0.00172727 0.0119156 -0.0149552 0.000423 -0.00342991 0.0248873 0.000884201 2650 
3163 1 -0.00844454 0.0129869 -0.0143674 0.000116 0.00944139 0.0175584 0.0253463 2650 
1839 1 -0.00318305 0.01512 -0.0147102 0.000116 -0.0676852 0.0211351 0.0188737 2650 
148 1 -0.00833735 0.0286976 -0.0143322 0.000423 -0.126154 -0.159151 0.0929372 2650 
1124 1 -0.000262588 0.0378204 -0.0148112 0.000423 0.115227 0.0704534 -0.0460588 2650 
1509 1 -0.0674799 -0.016431 -0.0138357 0.000116 -1.33784 0.546396 6.45301 2650 
186 1 -0.0674971 -0.0114413 -0.0137413 0.000116 -0.771897 -0.576809 3.80168 2650 
2829 1 -0.0675491 -0.00984255 -0.0134935 0.000116 -1.28945 0.8323 6.51041 2650 
2666 1 -0.00476491 -0.00273322 -0.0141485 0.000423 0.0429038 -0.00888448 0.00629481 2650 
1763 1 -0.00272934 -0.00267789 -0.0140127 0.000656 -0.0890582 0.0217677 -0.0881811 2650 
3576 1 -0.00376295 -0.00145349 -0.013726 0.000116 0.0561059 0.00120064 -0.0311085 2650 
2332 1 -0.00555484 -0.000709034 -0.0134434 0.000423 -0.0114447 -0.00779769 0.00753018 2650 
2922 1 -0.00760152 0.00136504 -0.0136911 0.000116 -0.00925852 -0.000802711 0.00675368 2650 
2474 1 -0.0013611 0.00270337 -0.0139721 0.000423 0.0307748 -0.0136667 -0.043701 2650 
150 1 -0.00916348 0.00349016 -0.0135999 0.000423 -0.040282 0.0254391 0.0150114 2650 
220 1 -0.00341593 0.0033175 -0.0141037 4.2e-05 0.00197382 0.00663681 0.00671825 2650 
889 1 -0.00257199 0.00385092 -0.013787 0.000656 0.0239908 0.0133229 -0.0547828 2650 
2913 1 -0.00931196 0.00427988 -0.013882 0.000116 -0.0140945 -0.0228944 -0.00540615 2650 
3787 1 -0.00670906 0.00409636 -0.0134597 0.000116 -0.0024271 -0.00223267 -0.0195234 2650 
4300 1 -0.000411235 0.00400191 -0.0141495 0.000423 0.0157414 0.0249973 -0.0399245 2650 
1388 1 -0.00525665 0.00544759 -0.0140957 0.000116 -0.039288 0.0021603 0.0169103 2650 
1288 1 -0.002467 0.00581202 -0.014044 0.000116 0 -0.011753 0 2650 
3515 1 -0.00827615 0.00681529 -0.0139626 0.000656 -0.00454215 -0.00749919 0.00616721 2650 
2918 1 -0.00687826 0.00653865 -0.0135988 0.000116 0.0149777 0.0131491 0.0124233 2650 
963 1 -0.00697 0.00699507 -0.0135843 0.000116 0.00350227 -0.00324664 0.0156587 2650 
1618 1 -0.00981844 0.00750892 -0.0136333 0.000116 0.0059414 0.00192455 -0.00369393 2650 
1250 1 -0.0087573 0.00772932 -0.0134444 0.000423 -0.00730125 -0.00574558 -0.000431452 2650 
1769 1 -0.00795467 0.00833518 -0.0139546 0.000656 -0.0151574 -0.00915465 0.00228284 2650 
2313 1 -0.00355803 0.00844554 -0.0139761 0.000656 0.0121795 0.0249345 0.010824 2650 
2726 1 -0.000137186 0.00857445 -0.0138804 0.000116 -0.00741369 0.00988612 -0.041436 2650 
4190 1 -0.00883157 0.00901968 -0.0139094 0.000423 -0.00788233 0.00684233 0.00501954 2650 
2092 1 -0.00669235 0.00919271 -0.0141743 0.000656 -0.00167296 0.00263094 0.0238503 2650 
1827 1 -0.00545405 0.00930949 -0.0139716 0.000116 0.0445821 -0.0304485 -0.00868089 2650 
1476 1 -0.00735867 0.00993693 -0.0134394 0.000423 -0.00473027 0.00118609 -0.000138689 2650 
1409 1 -0.00044 0.00959202 -0.013868 0.000116 0 -0.011753 0 2650 
1617 1 -0.000794099 0.011746 -0.0138209 0.000116 0.00511482 0.0710113 0.047396 2650 
3838 1 -0.00551116 0.0124766 -0.0136238 0.000656 0.0059045 0.0308137 -0.0288407 2650 
949 1 -0.00860561 0.0142307 -0.0135125 0.000116 -0.0490041 0.045275 -0.0453717 2650 