ITEM: TIMESTEP
6705558
ITEM: NUMBER OF ATOMS
4364
ITEM: BOX BOUNDS ff ff ff
-0.15 0.15
-0.15 0.06
-0.15 0.15
ITEM: ATOMS id type x y z radius vx vy vz density 
4009 1 -0.00838973 -0.0626084 -0.0683714 0.000116 -2.92461 -0.602395 0.364717 2650 
3079 1 -0.00856503 -0.0462587 -0.0678069 0.000656 -6.64187 -0.149519 0.857885 2650 
3834 1 -0.0220021 -0.0564058 -0.0653513 4.2e-05 -4.69713 0.221343 1.47185 2650 
1462 1 -0.0216695 -0.0497671 -0.0650384 0.000423 -6.52658 -0.0397042 2.24653 2650 
3409 1 -0.0280146 -0.0459085 -0.0623414 0.000656 -6.3028 -0.173944 2.82963 2650 
693 1 -0.0349077 -0.0465196 -0.0590289 0.000423 -4.47886 0.0665289 2.69278 2650 
4025 1 -0.0390665 -0.0461421 -0.0567347 0.000116 -4.35213 -0.743301 3.03321 2650 
3140 1 -0.0493883 -0.0494871 -0.0480197 0.000116 -4.0095 -0.184287 4.099 2650 
1239 1 -0.0541804 -0.0455235 -0.0420408 0.000423 -3.96803 -0.0395761 5.1113 2650 
1568 1 -0.06524 -0.0458304 -0.0211338 0.000423 -1.62636 -0.571099 5.04679 2650 
2708 1 -0.0668541 -0.0518667 -0.0165991 0.000116 -1.00218 0.715163 4.15281 2650 
3000 1 -0.0672073 -0.048292 -0.0136426 0.000423 -1.11345 -0.559546 5.54314 2650 
1256 1 -0.0679465 -0.0571447 0.00928539 0.000423 0.60697 -0.580166 4.24794 2650 
1471 1 -0.0679904 -0.0521728 0.00895277 0.000423 0.707333 -0.286421 5.26755 2650 
3779 1 -0.0679429 -0.0453515 0.00930851 0.000423 0.671667 0.330413 4.87328 2650 
983 1 -0.0666296 -0.0623934 0.0177708 4.2e-05 2.82155 0.0157568 10.5805 2650 
2201 1 -0.0637749 -0.0451528 0.024576 0.000656 2.28426 0.0576701 5.93045 2650 
1856 1 -0.0525685 -0.057774 0.0445105 0.000116 3.20574 -0.164065 3.75489 2650 
3073 1 -0.0499383 -0.0453008 0.0475445 4.2e-05 5.31686 -0.261747 5.54852 2650 
3957 1 -0.0400417 -0.0463621 0.0553896 0.000656 5.18098 -0.106586 3.72122 2650 
482 1 -0.0314593 -0.0589194 0.0609358 0.000423 5.20114 -0.0395797 2.71239 2650 
831 1 -0.0321203 -0.052024 0.0609367 0.000116 6.21339 -1.33134 3.27136 2650 
4220 1 -0.000964723 -0.0289192 -0.0688778 0.000116 -6.71256 -1.85246 0.120146 2650 
1647 1 -0.000598651 -0.0265659 -0.0689553 4.2e-05 -5.19127 -0.540103 0.0450151 2650 
2947 1 -0.000593745 -0.0252799 -0.0688815 0.000116 -4.68005 -0.120791 0.0274257 2650 
3386 1 -0.00319617 -0.0247318 -0.0688099 0.000116 -6.14077 -0.077015 0.283298 2650 
1964 1 -0.004654 -0.0181571 -0.0687263 0.000116 -5.38618 -0.443072 0.355121 2650 
2829 1 -0.00150568 -0.0160888 -0.0688676 0.000116 -5.11778 -0.764188 0.111524 2650 
2053 1 -0.00102522 -0.00703764 -0.0688767 0.000116 -5.2533 -0.0954847 0.0682729 2650 
612 1 -0.00387419 -0.00468743 -0.068775 0.000116 -4.38369 0.127861 0.259167 2650 
4263 1 -0.00387317 -0.00452033 -0.0688491 4.2e-05 -4.3747 0.146994 0.255036 2650 
2072 1 -0.00821456 -0.032491 -0.0683927 0.000116 -6.36432 0.669155 0.751802 2650 
3759 1 -0.00469198 -0.0314076 -0.0684177 0.000423 -6.01712 0.365951 0.411411 2650 
1670 1 -0.008083 -0.0263692 -0.0680997 0.000423 -5.53479 -0.161704 0.681688 2650 
2451 1 -0.00428025 -0.0254551 -0.068445 0.000423 -4.30032 -0.748876 0.282365 2650 
3887 1 -0.00882146 -0.0250727 -0.0680079 0.000423 -5.52072 -0.0110223 0.682607 2650 
21 1 -0.00240806 -0.0248029 -0.0685359 0.000423 -5.88518 -0.203829 0.226506 2650 
4293 1 -0.00299346 -0.024174 -0.0685123 0.000423 -5.75389 -0.0274196 0.254498 2650 
4084 1 -0.00892354 -0.0214266 -0.0679949 0.000423 -5.72287 -0.266952 0.735572 2650 
2560 1 -0.0081507 -0.0217588 -0.0680917 0.000423 -5.72004 -0.242893 0.686691 2650 
2224 1 -0.00787058 -0.0204645 -0.0681253 0.000423 -5.34898 -0.279681 0.626077 2650 
1020 1 -0.00664179 -0.019388 -0.0682552 0.000423 -5.0128 -0.646146 0.475349 2650 
34 1 -0.00787648 -0.0184891 -0.0681239 0.000423 -5.16502 0.128254 0.590029 2650 
2337 1 -0.00970511 -0.018065 -0.0678861 0.000423 -5.34329 0.312675 0.769657 2650 
1290 1 -0.00672573 -0.0131546 -0.0685551 0.000116 -5.48033 -0.522861 0.527154 2650 
4212 1 -0.00626236 -0.0108922 -0.0682922 0.000423 -5.52465 0.0461383 0.489358 2650 
3862 1 -0.00503669 -0.0083695 -0.0683933 0.000423 -5.67282 0.196006 0.416892 2650 
502 1 -0.00582443 -0.0042722 -0.0686371 0.000116 -4.18487 0.0364487 0.356212 2650 
1735 1 -0.00551322 -0.000116251 -0.0686628 0.000116 -5.36711 -0.00772998 0.426313 2650 
2037 1 -0.0133228 -0.0391376 -0.0675822 0.000116 -5.37197 -0.617845 1.03748 2650 
2618 1 -0.0120121 -0.0354261 -0.0678193 0.000116 -6.54303 0.312621 1.13077 2650 
1805 1 -0.011489 -0.0319762 -0.0675968 0.000423 -5.53483 -0.528271 0.887079 2650 
468 1 -0.010889 -0.0295474 -0.0677045 0.000423 -6.47431 -0.108094 1.00682 2650 
115 1 -0.00863081 -0.0299027 -0.0677961 0.000656 -6.45332 -0.0927102 0.850549 2650 
821 1 -0.011523 -0.0240402 -0.0676021 0.000423 -5.77125 -0.29252 1.0219 2650 
1333 1 -0.0140476 -0.0173942 -0.0671171 0.000423 -5.31999 -0.123476 1.11463 2650 
3743 1 -0.0131373 -0.0180762 -0.0673071 0.000423 -5.32506 -0.287988 1.00988 2650 
1995 1 -0.00971893 -0.00871874 -0.0678855 0.000423 -4.2883 -0.177095 0.553301 2650 
4038 1 -0.0150385 -0.0075185 -0.0671831 0.000116 -3.36904 -0.321444 0.757983 2650 
3525 1 -0.0103588 -0.0052278 -0.0677908 0.000423 -4.05668 0.146001 0.645722 2650 
4124 1 -0.01558 -0.000164449 -0.0670982 0.000116 -4.25767 -0.0354984 0.892791 2650 
4006 1 -0.0176971 -0.0338908 -0.0665706 0.000116 -5.89318 -0.621102 1.55889 2650 
55 1 -0.0159257 -0.0203651 -0.0667033 0.000423 -5.8515 0.190672 1.4205 2650 
733 1 -0.0172484 -0.0190559 -0.0666876 0.000116 -5.65874 -0.154079 1.55369 2650 
4100 1 -0.0159709 -0.018792 -0.0666866 0.000423 -5.84228 0.361982 1.36745 2650 
2081 1 -0.0173962 -0.008199 -0.0667276 4.2e-05 -3.23348 -0.165703 0.793417 2650 
2271 1 -0.0206743 -0.0319992 -0.0657083 0.000116 -5.85751 0.665602 1.84756 2650 
2208 1 -0.0173977 -0.02337 -0.0660941 0.000656 -5.97844 -0.0570078 1.55596 2650 
4082 1 -0.019551 -0.0113074 -0.0657316 0.000423 -3.01244 -0.428473 0.927073 2650 
1474 1 -0.020922 -0.0314606 -0.0653078 0.000423 -4.69117 0.21692 1.48359 2650 
3708 1 -0.0224095 -0.0137363 -0.0651372 0.000116 -4.41728 0.0966217 1.51683 2650 
2821 1 -0.0228895 -0.00400902 -0.0649694 0.000116 -4.33697 0.599678 1.52776 2650 
2162 1 -0.0243956 -0.0222387 -0.0644192 0.000116 -5.40916 0.0886142 2.0328 2650 
1903 1 -0.0251685 -0.0411849 -0.0637925 0.000423 -5.54636 -0.229769 2.19981 2650 
122 1 -0.0251122 -0.0302064 -0.0635656 0.000656 -6.0206 -0.11334 2.38761 2650 
1687 1 -0.0252231 -0.0287455 -0.0637721 0.000423 -5.94246 -0.0473545 2.33022 2650 
1901 1 -0.0252964 -0.0220237 -0.0637416 0.000423 -4.71389 -0.079449 1.90262 2650 
4187 1 -0.027445 -0.0437673 -0.0628464 0.000423 -5.87164 -0.19568 2.56515 2650 
3313 1 -0.0284232 -0.0386722 -0.0624105 0.000423 -5.5019 0.0206909 2.51389 2650 
71 1 -0.0276393 -0.0370116 -0.0630958 0.000116 -5.89986 0.860025 2.57877 2650 
2131 1 -0.0281294 -0.0357015 -0.0625439 0.000423 -5.22821 -0.000348863 2.35245 2650 
2532 1 -0.0277038 -0.034699 -0.0624789 0.000656 -5.27077 0.0267476 2.32663 2650 
868 1 -0.0283818 -0.03384 -0.0627657 0.000116 -5.35866 0.156736 2.41478 2650 
2873 1 -0.0284635 -0.0272768 -0.0623926 0.000423 -5.16537 0.149942 2.34472 2650 
95 1 -0.0275806 -0.0273896 -0.0631216 0.000116 -4.54279 -0.56971 1.98016 2650 
2667 1 -0.0287348 -0.037744 -0.0622671 0.000423 -5.30594 -0.0715017 2.47336 2650 
3603 1 -0.0301853 -0.0248162 -0.0619183 0.000116 -4.60225 -0.148927 2.24746 2650 
691 1 -0.0314745 -0.0420005 -0.0609284 0.000423 -5.96272 0.0196077 3.07569 2650 
3425 1 -0.0303106 -0.0359751 -0.0615166 0.000423 -5.83827 0.187969 2.87898 2650 
2862 1 -0.0302286 -0.0307392 -0.0612975 0.000656 -5.42341 -0.0717879 2.68879 2650 
160 1 -0.0305722 -0.0253968 -0.061386 0.000423 -4.62227 -0.446841 2.32063 2650 
671 1 -0.0303518 -0.0242026 -0.0612356 0.000656 -5.94057 0.0231345 2.91667 2650 
3390 1 -0.0323757 -0.0187216 -0.0608003 0.000116 -3.39237 -0.156412 1.80005 2650 
1075 1 -0.0324373 -0.00233542 -0.0607678 0.000116 -5.27635 -0.298257 2.83128 2650 
4345 1 -0.0337802 -0.0285782 -0.0600327 0.000116 -5.35477 -0.44104 3.01395 2650 
1231 1 -0.0326836 -0.00992514 -0.0602847 0.000423 -4.71649 0.0839836 2.54442 2650 
2269 1 -0.0331481 -0.00682131 -0.0603796 0.000116 -2.93561 -0.139116 1.58629 2650 
3440 1 -0.03341 -0.0380777 -0.0598889 0.000423 -5.5901 -0.229783 3.13456 2650 
4268 1 -0.0351096 -0.0203658 -0.059351 4.2e-05 -5.80455 0.535413 3.43981 2650 
4303 1 -0.0335821 -0.015791 -0.0597907 0.000423 -4.68853 -0.10649 2.61024 2650 
2938 1 -0.0311856 -0.00586248 -0.0598644 0.000116 -3.1755 -0.134 0.999565 2650 
2920 1 -0.0356986 -0.0357075 -0.0589118 0.000116 -5.31825 -0.115688 3.22334 2650 
1206 1 -0.0327949 -0.0249175 -0.058486 4.2e-05 -4.24331 -4.58104 1.77042 2650 
917 1 -0.0357187 -0.0237605 -0.0585411 0.000423 -4.74224 -0.392428 2.90089 2650 
1030 1 -0.0316825 -0.0210716 -0.0585462 0.000423 -2.82917 -1.15334 1.59896 2650 
1934 1 -0.0359808 -0.0197497 -0.05874 0.000116 -4.55075 -0.361246 2.79265 2650 
3156 1 -0.0366536 -0.0293593 -0.0583225 0.000116 -5.72986 -0.921396 3.59703 2650 
3724 1 -0.0373973 -0.0136015 -0.0579063 4.2e-05 -3.1507 0.311584 2.01179 2650 
1591 1 -0.0372509 -0.0387624 -0.0575789 0.000423 -5.96646 0.235386 3.88612 2650 
1111 1 -0.0377355 -0.0273283 -0.0569826 0.000656 -5.50464 -0.0760731 3.64906 2650 
2937 1 -0.0381038 -0.0252742 -0.057385 0.000116 -4.96844 -0.412381 3.32042 2650 
2816 1 -0.0388912 -0.014275 -0.0568497 0.000116 -3.17926 0.0253008 2.29047 2650 
2578 1 -0.0393133 -0.035735 -0.0561885 0.000423 -4.43071 0.0113606 3.10845 2650 
2398 1 -0.0390586 -0.0200783 -0.0567255 0.000116 -4.62889 -0.358415 4.28962 2650 
3574 1 -0.0399044 -0.0179988 -0.0561484 0.000116 -5.41967 -0.0645373 3.8403 2650 
392 1 -0.0399883 -0.0114245 -0.0560883 0.000116 -2.95797 -0.192618 2.10354 2650 
106 1 -0.0397427 -0.0109399 -0.0563524 4.2e-05 -3.84566 -0.659253 2.73558 2650 
2803 1 -0.0402608 -0.0161863 -0.0558929 0.000116 -3.72578 -0.608585 2.73365 2650 
2711 1 -0.0402437 -0.00652077 -0.0559057 0.000116 -3.70921 0.295987 2.67383 2650 
19 1 -0.0409942 -0.032221 -0.0549407 0.000423 -4.55661 -0.351506 3.36622 2650 
4312 1 -0.0408601 -0.0225314 -0.0550717 0.000423 -3.92864 -0.37488 3.07239 2650 
334 1 -0.0407888 -0.0208041 -0.0548397 0.000656 -3.86708 -0.0706317 2.83937 2650 
1619 1 -0.0426701 -0.0208275 -0.0540766 0.000116 -5.35259 0.616759 4.2092 2650 
4323 1 -0.0424153 -0.0166139 -0.0538879 0.000423 -5.36212 0.0471338 4.21078 2650 
3034 1 -0.0428979 -0.0066316 -0.0538962 0.000116 -4.21473 -0.118628 3.3777 2650 
4260 1 -0.0432179 -0.00459911 -0.0536394 0.000116 -4.87779 -0.101163 3.93111 2650 
2327 1 -0.0427865 -0.0299737 -0.0535786 0.000423 -5.21602 0.240918 4.26212 2650 
2606 1 -0.043982 -0.0287245 -0.0530027 0.000116 -4.7686 -0.213007 3.88483 2650 
1955 1 -0.0432554 -0.0283245 -0.0536015 0.000116 -5.33344 0.156859 4.43655 2650 
1051 1 -0.0435761 -0.0239055 -0.0533447 0.000116 -4.35264 -0.753531 3.53416 2650 
1214 1 -0.0428744 -0.0191698 -0.0532257 0.000656 -5.31033 -0.11456 4.32016 2650 
2247 1 -0.0435406 -0.0182368 -0.0529822 0.000423 -5.1109 0.311371 4.18677 2650 
152 1 -0.0440835 -0.0284754 -0.0525164 0.000423 -4.69677 -0.218709 3.91682 2650 
1598 1 -0.0443094 -0.00564408 -0.0527419 0.000116 -4.54608 0.212407 3.80879 2650 
311 1 -0.0451773 -0.0247829 -0.0519998 0.000116 -3.89078 0.17215 3.47019 2650 
2064 1 -0.0451944 -0.0221826 -0.0519571 0.000116 -4.44268 -0.472954 2.90711 2650 
4017 1 -0.0466819 -0.00304623 -0.0506536 0.000116 -3.22803 -0.293697 2.9522 2650 
2396 1 -0.046261 -0.0011175 -0.0510381 0.000116 -3.41775 -0.120349 3.07738 2650 
4255 1 -0.0474701 -0.0237009 -0.0499152 0.000116 -5.35419 0.176945 5.07217 2650 
399 1 -0.0473819 -0.020045 -0.0499995 0.000116 -3.56051 -0.318688 3.42465 2650 
4319 1 -0.0480391 -0.0246639 -0.0489402 0.000423 -4.16218 0.0586933 4.10044 2650 
1249 1 -0.0480813 -0.0210715 -0.048899 0.000423 -3.96471 0.133592 3.91456 2650 
1058 1 -0.0484102 -0.0173888 -0.0490039 0.000116 -2.61629 -0.327427 2.5615 2650 
3536 1 -0.047956 -0.0148198 -0.0490224 0.000423 -3.66009 -0.156773 3.57002 2650 
1792 1 -0.0475058 -0.00793239 -0.0494588 0.000423 -3.66169 -0.0715354 3.51905 2650 
330 1 -0.04439 -0.00419799 -0.0489172 4.2e-05 -1.55968 -0.0707558 2.76067 2650 
2212 1 -0.0478263 -0.0262509 -0.0488245 0.000656 -4.21864 0.0816173 4.11245 2650 
747 1 -0.048528 -0.0213776 -0.048879 0.000116 -3.72026 -0.48228 4.03899 2650 
1208 1 -0.0488789 -0.00349428 -0.0486421 4.2e-05 -3.97641 -0.277945 3.9735 2650 
2515 1 -0.0500484 -0.0292195 -0.0473315 0.000116 -3.60382 -0.934608 3.81983 2650 
335 1 -0.0501109 -0.0273756 -0.0464768 0.000656 -3.20802 -0.166374 3.46912 2650 
1380 1 -0.0514631 -0.0228171 -0.0457879 0.000116 -3.63607 -0.449281 4.08796 2650 
343 1 -0.0517823 -0.0381204 -0.0449611 0.000423 -3.88736 0.107943 4.47569 2650 
2465 1 -0.0517949 -0.0315136 -0.0449473 0.000423 -3.36605 -0.297906 3.83932 2650 
2865 1 -0.0517186 -0.0243938 -0.0446799 0.000656 -3.96114 0.0642446 4.60198 2650 
3375 1 -0.0531166 -0.00851353 -0.0438597 0.000116 -2.64073 0.223584 3.20945 2650 
1838 1 -0.0536113 -0.0134595 -0.0432529 0.000116 -2.19168 -0.210687 2.6974 2650 
791 1 -0.0534303 -0.0111859 -0.0429892 0.000423 -2.60899 -0.135909 3.22465 2650 
51 1 -0.0546972 -0.0436609 -0.0413666 0.000423 -3.54768 -0.330354 4.66627 2650 
711 1 -0.0530531 -0.00412779 -0.0411485 0.000423 -2.87725 0.406241 3.05173 2650 
2237 1 -0.0551674 -0.0336883 -0.0407363 0.000423 -3.32535 -0.143548 4.47907 2650 
1463 1 -0.0550204 -0.0307344 -0.0409354 0.000423 -3.18007 0.389788 4.29767 2650 
4150 1 -0.0561721 -0.00857128 -0.0398709 0.000116 -2.54721 0.250871 3.55988 2650 
1996 1 -0.0562163 -0.0290798 -0.0392738 0.000423 -3.53725 0.379686 5.10788 2650 
2538 1 -0.0562546 -0.00789261 -0.0388105 0.000656 -2.41258 -0.0991974 3.14762 2650 
3089 1 -0.0575445 -0.0347289 -0.0372555 0.000423 -3.29105 0.00741881 5.09981 2650 
1816 1 -0.0583247 -0.0257733 -0.0366228 0.000116 -2.37436 0.102832 3.88739 2650 
4021 1 -0.0582208 -0.0125249 -0.0367724 0.000116 -3.99745 0.444149 6.41152 2650 
2042 1 -0.0591469 -0.0372306 -0.0353029 0.000116 -1.75613 -1.04899 2.91312 2650 
4308 1 -0.0586961 -0.028337 -0.0354389 0.000423 -2.67101 0.136747 4.79946 2650 
1177 1 -0.0591271 -0.00474903 -0.0353359 0.000116 -2.12084 0.124845 3.47836 2650 
3090 1 -0.0594422 -0.0380259 -0.0341986 0.000423 -2.40438 -0.653354 4.13044 2650 
3431 1 -0.0596105 -0.0302751 -0.0339047 0.000423 -2.67485 -0.168426 4.80739 2650 
3357 1 -0.0598244 -0.0126889 -0.0341294 0.000116 -3.3816 0.26259 5.98759 2650 
355 1 -0.0596362 -0.0286192 -0.0338355 0.000423 -2.79411 0.0508805 4.93237 2650 
2395 1 -0.0603084 -0.0211045 -0.0332848 0.000116 -2.87443 0.387003 5.21465 2650 
3069 1 -0.0601951 -0.0154574 -0.0336332 4.2e-05 -2.45823 0.177099 4.45045 2650 
3783 1 -0.0599828 -0.0136732 -0.0332379 0.000423 -1.52423 -0.600285 2.59745 2650 
3691 1 -0.0602558 -0.00305244 -0.033379 0.000116 -2.36491 0.0566557 4.23154 2650 
2790 1 -0.0602729 -0.0239147 -0.0327123 0.000423 -2.88025 0.0885249 5.31225 2650 
1865 1 -0.0605662 -0.014828 -0.0329662 4.2e-05 -3.59962 0.716775 6.61317 2650 
1392 1 -0.0611215 -0.00155557 -0.0317651 0.000116 -2.81029 -0.199584 5.41259 2650 
2210 1 -0.0610026 -0.0372376 -0.0308165 0.000656 -2.1835 -0.272851 4.33537 2650 
3964 1 -0.0610431 -0.0223545 -0.0312514 0.000423 -2.84659 0.0219634 5.50769 2650 
1825 1 -0.0615336 -0.0160538 -0.0309605 0.000116 -2.18076 0.949201 4.32564 2650 
4342 1 -0.0622581 -0.0398232 -0.0294771 0.000116 -2.65266 -0.102081 5.60473 2650 
3444 1 -0.0619177 -0.0308966 -0.0294831 0.000423 -2.06268 0.0197774 4.3608 2650 
1585 1 -0.0620388 -0.0184752 -0.0292236 0.000423 -2.02224 -0.0398967 4.28219 2650 
3153 1 -0.000406924 -0.00377921 -0.029626 0.000116 -0.0277683 -0.0820904 -4.08725 2650 
223 1 -0.061485 -0.00232529 -0.0298445 0.000656 -3.20992 0.0929887 6.74206 2650 
169 1 -0.062165 -0.000204409 -0.0296734 0.000116 -2.21895 -0.0541181 4.61996 2650 
4035 1 -0.0625943 -0.0234478 -0.0287563 0.000116 -2.02178 0.244939 4.41729 2650 
2480 1 -0.0624629 -0.0196107 -0.0290407 0.000116 -1.9572 -0.0531239 4.22424 2650 
862 1 -0.0626211 -0.0186602 -0.0286977 0.000116 -1.8124 -0.0588695 3.98633 2650 
1393 1 -0.0436522 -0.00501344 -0.0280834 0.000116 -6.49275 -0.180419 -4.16655 2650 
1410 1 -0.0633148 -0.0176816 -0.0271337 0.000116 -1.89808 0.114519 4.40966 2650 
3936 1 -0.0633891 -0.0167077 -0.0271476 4.2e-05 -1.40833 -0.140633 3.28878 2650 
2559 1 -0.0629689 -0.0164664 -0.0271643 0.000423 -2.26988 -0.252293 5.22388 2650 
2768 1 -0.0628075 -0.013334 -0.0275361 0.000423 -2.34154 0.168652 5.26203 2650 
849 1 -0.0633984 -0.000999057 -0.0269376 0.000116 -1.76696 -0.0505755 4.0988 2650 
817 1 -0.0633958 -0.026631 -0.0261503 0.000423 -2.36898 -0.17513 5.71919 2650 
1499 1 -0.0636523 -0.0154197 -0.0263321 0.000116 -2.15472 0.355191 5.21193 2650 
2169 1 -0.0639579 -0.0278479 -0.0255822 0.000116 -2.09526 -0.428831 5.27381 2650 
2626 1 -0.0638433 -0.0267106 -0.0258592 0.000116 -2.19105 0.10784 6.27843 2650 
239 1 -0.063711 -0.0262485 -0.0253746 0.000423 -2.31302 0.26198 5.77914 2650 
3378 1 -0.0638362 -0.0240027 -0.0258832 0.000116 -2.8397 -0.408723 7.02401 2650 
3516 1 -0.0635813 -0.0331701 -0.025074 0.000656 -2.3601 0.300497 5.89625 2650 
1364 1 -0.0641555 -0.0107611 -0.0242287 0.000423 -1.30009 -0.104287 3.50856 2650 
4306 1 -0.0409205 -0.00742893 -0.0230747 0.000423 -6.0337 -0.376076 -3.38574 2650 
844 1 -0.0657014 -0.0260615 -0.0206957 0.000116 -2.1289 -0.193284 6.74768 2650 
3040 1 -0.0657132 -0.023395 -0.020633 0.000116 -2.0541 -0.964237 6.04262 2650 
577 1 -0.0655191 -0.0229836 -0.0202503 0.000423 -1.76409 0.00918412 5.73334 2650 
1468 1 -0.00672953 -0.00581623 -0.0196912 0.000423 -0.647638 -0.457052 -1.91118 2650 
3817 1 -0.0662446 -0.00538496 -0.0188847 0.000116 -1.59017 0.176076 5.56037 2650 
1958 1 -0.0663998 -0.0249683 -0.0183328 0.000116 -1.41809 -0.554325 5.20878 2650 
3522 1 -0.0660818 -0.0245071 -0.0183338 0.000423 -1.67043 -0.0980346 6.04221 2650 
4320 1 -0.0660601 -0.0221819 -0.0184124 0.000423 -1.55817 0.229853 5.62114 2650 
3399 1 -0.0664987 -0.0181641 -0.0182505 4.2e-05 -1.82882 1.159 6.57775 2650 
1787 1 -0.0659486 -0.0183293 -0.018808 0.000423 -1.60984 -0.175566 5.59811 2650 
2242 1 -0.065932 -0.0140375 -0.0188654 0.000423 -1.6105 0.14261 5.6685 2650 
1944 1 -0.066522 -0.00541285 -0.0178737 0.000116 -0.821949 -0.100662 3.0789 2650 
1638 1 -0.0667353 -0.039861 -0.0170503 0.000116 -1.47273 -0.279275 5.53916 2650 
1174 1 -0.0668561 -0.0156455 -0.0165567 0.000116 -1.52258 -0.284779 5.70285 2650 
921 1 -0.0663727 -0.0143031 -0.0172511 0.000423 -1.472 -0.0190397 5.64794 2650 
606 1 -0.000183 0.00283102 -0.016592 0.000116 0 -0.011753 0 2650 
188 1 -0.00111639 0.0104016 -0.0167047 0.000116 -0.0148612 0.0228045 0.00418427 2650 
2713 1 -0.000754103 0.0109456 -0.0166388 0.000116 0.00037122 0.035974 0.00535071 2650 
4311 1 -0.0665846 -0.0134682 -0.0163089 0.000423 -1.38876 0.0156439 5.30932 2650 
736 1 -0.00438613 0.000591489 -0.0161642 0.000116 -0.0307431 -0.0170391 0.0144389 2650 
30 1 -0.000371678 0.00061454 -0.01653 0.000423 -0.0136125 -0.0214967 0.00834717 2650 
1679 1 -0.00367669 0.00286222 -0.0161058 0.000423 -0.00531599 0.0154477 0.00427337 2650 
2013 1 -0.0027978 0.00280927 -0.0160723 0.000423 -0.00154235 0.00221798 0.00156406 2650 
2283 1 -0.00305113 0.00355477 -0.0162119 0.000116 -0.0318858 -0.01081 -0.0228231 2650 
2301 1 -0.004222 0.00460402 -0.016305 4.2e-05 0 -0.011753 0 2650 
3121 1 -0.00238746 0.00510249 -0.0162013 0.000423 0.0292552 0.00121421 5.81941e-05 2650 
978 1 -0.00452878 0.00672687 -0.0161227 0.000116 0.015313 -0.00383775 -0.0151954 2650 
3934 1 -0.001977 0.00759302 -0.016218 0.000116 0 -0.011753 0 2650 
1617 1 -0.00268948 0.00986156 -0.0160025 0.000116 0.0304013 0.00375314 0.0183235 2650 
1620 1 -0.00165414 0.00949035 -0.0158087 0.000116 0.0529387 0.0514306 -0.00503745 2650 
2924 1 -0.00169997 0.0120785 -0.0162106 0.000116 -0.059039 0.0353164 0.00422158 2650 
4231 1 -0.000423561 0.0170013 -0.0163858 0.000116 -0.0134934 0.0153003 0.0304581 2650 
1173 1 -0.00386974 0.0430756 -0.0163635 0.000116 -0.137161 0.346597 0.0373246 2650 
1357 1 -0.000802416 0.0552581 -0.0164044 0.000423 0.0707047 -0.134764 -0.00396134 2650 
1022 1 -0.0032226 -0.00124058 -0.0150505 0.000423 0.00547055 0.0207929 0.0819064 2650 
509 1 -0.00750338 -0.000113731 -0.0150682 0.000116 -0.00521486 0.00944493 -0.0325939 2650 
545 1 -0.00205242 0.000109674 -0.015131 4.2e-05 0.0164356 0.0574887 0.091312 2650 
150 1 -0.00477102 0.00204385 -0.0156737 0.000423 -0.0551283 0.0175519 0.0264808 2650 
3239 1 -0.00416738 0.00175857 -0.015343 0.000116 -0.0248133 -0.00752354 0.0120924 2650 
3637 1 -0.00407932 0.00258581 -0.015405 0.000423 -0.010908 0.0125472 -0.00602406 2650 
2399 1 -0.002418 0.00304502 -0.015541 0.000116 0 -0.011753 0 2650 
2793 1 -0.00165128 0.00405459 -0.0156842 0.000423 0.0182843 0.0982975 0.0184189 2650 
1388 1 -0.00204089 0.00527076 -0.0154798 0.000116 -0.039288 0.0021603 0.0169103 2650 
2438 1 -0.00562941 0.00685385 -0.0152105 0.000423 -0.00364828 0.010897 0.00465106 2650 
963 1 -0.00654311 0.00712779 -0.0152236 0.000116 -0.0190241 0.000952492 0.0269479 2650 
1219 1 -0.000281808 0.00773539 -0.0155024 0.000656 0.0133734 0.0239605 0.00857101 2650 
2969 1 -0.00163851 0.00867557 -0.0150923 0.000656 -0.00770999 0.0181957 -4.77754e-05 2650 
3830 1 -0.006879 0.00914502 -0.015411 4.2e-05 0 -0.011753 0 2650 
86 1 -0.00231956 0.00916673 -0.0150446 0.000116 -0.0196067 0.0126222 0.000798653 2650 
3177 1 -0.000930872 0.00879691 -0.0155116 4.2e-05 0.00917698 -0.00185525 -0.00666376 2650 
1483 1 -0.000339945 0.0090302 -0.0154961 0.000423 0.000441422 0.00568033 -0.00701639 2650 
1827 1 -0.00735411 0.00967264 -0.0150316 0.000116 0.0104858 0.011057 0.025833 2650 
233 1 -0.00476941 0.00953648 -0.0154784 0.000423 0.000342891 -0.00976437 -0.0328705 2650 
938 1 -0.000938042 0.0101118 -0.0154299 0.000116 -0.00972467 -0.0045752 -0.00099221 2650 
371 1 -0.000443259 0.00988592 -0.0154378 0.000423 -0.000525259 0.00952275 -0.00581088 2650 
3644 1 -0.00104535 0.0125913 -0.0157445 0.000423 -0.00432743 0.00711996 -0.0325914 2650 
352 1 -0.00554726 0.0415194 -0.0153488 0.000423 0.0736471 -0.159457 0.0441779 2650 
4245 1 -0.00581896 0.0452711 -0.0154528 0.000116 -0.108278 0.145073 0.0575558 2650 
981 1 -0.0673393 -0.0347535 -0.0147415 4.2e-05 -0.652713 0.29104 3.3331 2650 
353 1 -0.0669232 -0.0241897 -0.0149019 0.000423 -1.23153 0.183334 5.57556 2650 
4056 1 -0.0668381 -0.0223338 -0.0142768 0.000656 -1.22086 0.078692 5.82302 2650 
2340 1 -0.0669808 -0.0204387 -0.014715 0.000423 -1.33393 0.0783563 6.00932 2650 
1317 1 -0.0674701 -0.00870774 -0.0141729 4.2e-05 -0.51625 -0.170364 3.36132 2650 
2817 1 -0.00153455 -0.00289724 -0.0142449 0.000116 0.0100645 -0.056664 0.00630574 2650 
2172 1 -0.00642804 -0.00160116 -0.014429 0.000116 0.0554355 0.00150652 -0.0523356 2650 
1053 1 -0.007469 -0.000796984 -0.014946 0.000116 0 -0.011753 0 2650 
623 1 -0.00650086 0.000335022 -0.0147533 0.000116 -0.0192086 -0.00896372 0.0230222 2650 
1991 1 -0.00576513 0.000463708 -0.0149952 0.000656 -0.0195897 -0.00213105 0.00864983 2650 
2922 1 -0.0068437 0.00143074 -0.0142439 0.000116 -0.00925852 -0.000802711 0.00675368 2650 
676 1 -0.00326055 0.00200457 -0.0149569 0.000423 -0.0247905 0.00447638 0.0282863 2650 
220 1 -0.00357749 0.00277427 -0.0146536 4.2e-05 0.00197382 0.00663681 0.00671825 2650 
3587 1 -0.0064698 0.00351159 -0.0142556 0.000116 -0.0152422 -0.0151231 -0.00566973 2650 
2918 1 -0.0081042 0.00546238 -0.0146156 0.000116 0.0149777 0.0131491 0.0124233 2650 
3365 1 -0.002315 0.00547102 -0.014552 0.000116 0 -0.011753 0 2650 
2313 1 -0.00455493 0.00640463 -0.014862 0.000656 0.0121795 0.0249345 0.010824 2650 
581 1 -0.0056204 0.00839697 -0.0144551 0.000423 -0.000593495 -0.0101803 -0.00423903 2650 
289 1 -0.00207504 0.00972097 -0.0147658 0.000116 -0.0188061 -0.000940224 -0.0594549 2650 
1228 1 -0.00150799 0.00992102 -0.0149983 0.000423 -0.0026547 0.0243513 0.000515369 2650 
3669 1 -0.000199413 0.010459 -0.0147597 0.000423 0.00220454 -0.00743356 -0.00383523 2650 
3007 1 -0.00167095 0.0112673 -0.0146995 0.000423 -0.0135196 -0.00505473 -0.0280609 2650 
478 1 -0.00734748 0.0151088 -0.0143106 0.000423 0.0184535 0.00116934 0.020279 2650 
568 1 -0.000892515 0.0175973 -0.0145479 0.000423 0.0646767 0.0324089 0.0265592 2650 
2643 1 -0.00175103 0.0271943 -0.0148015 0.000656 -0.0823633 0.0688822 0.0201377 2650 
2921 1 -0.0674063 -0.0137459 -0.0140835 0.000116 -1.0591 0.729544 5.53266 2650 
2413 1 -0.0675994 -0.00600379 -0.0136103 4.2e-05 -0.586315 -0.162339 3.47759 2650 
2666 1 -0.00779059 -0.00194326 -0.0135972 0.000423 0.00506312 -0.0128769 -0.0752945 2650 
2827 1 -0.00563273 -0.00180615 -0.0142063 0.000116 -0.0201753 -0.0226203 0.0017234 2650 
269 1 -8.37651e-05 -0.00139169 -0.0138756 0.000423 -0.0067037 -0.0325502 -0.00931701 2650 
2332 1 -0.00461808 -7.07853e-05 -0.0140598 0.000423 -0.0114447 -0.00779769 0.00753018 2650 
222 1 -0.00271161 -0.000578962 -0.0136465 0.000656 -0.0189906 -0.0240038 0.0410277 2650 
2512 1 -0.00901609 0.00382163 -0.0136077 0.000116 0.018779 -0.0192413 0.00230208 2650 
1171 1 -0.00834107 0.0038968 -0.0139234 0.000116 0.0131753 -0.0110464 0.0150896 2650 
1032 1 -0.00752207 0.003675 -0.0141762 0.000423 0.0299121 -0.00820922 0.0127278 2650 
4165 1 -0.0051739 0.00320401 -0.0135153 0.000656 -6.3943e-05 -0.032131 0.00827285 2650 
2913 1 -0.00815831 0.00615381 -0.0134395 0.000116 -0.0140945 -0.0228944 -0.00540615 2650 
3950 1 -0.00712394 0.00619546 -0.0138194 0.000656 0.000588401 -0.011021 0.0254098 2650 
2322 1 -0.00860092 0.00694394 -0.0135196 0.000656 -0.010444 -0.0114293 0.00249654 2650 
1288 1 -0.002467 0.00677402 -0.014044 0.000116 0 -0.011753 0 2650 
4227 1 -0.000602789 0.00654049 -0.0134745 0.000116 -0.00921828 -0.0161692 0.0154311 2650 
3515 1 -0.00748546 0.00757686 -0.0140227 0.000656 -0.00997791 -0.00948519 0.00142522 2650 
2222 1 -0.000588508 0.00786685 -0.0142008 0.000423 -0.00549102 -0.00568171 -0.00117535 2650 
1618 1 -0.00923261 0.008059 -0.0139665 0.000116 -0.0250454 -0.000838232 0.0233532 2650 
4190 1 -0.00858939 0.00860169 -0.0140503 0.000423 -0.007929 0.00210755 0.00547245 2650 
1250 1 -0.00812401 0.00822042 -0.0134376 0.000423 -0.0112808 -0.00783473 0.00280943 2650 
1769 1 -0.00684078 0.0086535 -0.013589 0.000656 -0.0120334 -0.000961407 -0.0081542 2650 
4257 1 -0.0079585 0.00886585 -0.0139753 0.000116 0.0101268 -0.0416798 0.0036163 2650 
1476 1 -0.00699244 0.0097501 -0.013435 0.000423 -0.00430855 0.00299287 4.96068e-07 2650 
1986 1 -0.00271893 0.0102201 -0.0134803 0.000656 0.00762539 0.0149956 0.0116892 2650 
1409 1 -0.00044 0.010554 -0.013868 0.000116 0 -0.011753 0 2650 
959 1 -0.00953766 0.0147488 -0.0135863 0.000116 -0.0124197 0.0522228 0.0447896 2650 
142 1 -0.00594497 0.0243763 -0.0137148 0.000423 -0.0600809 0.0373384 0.0570253 2650 
913 1 -0.00207021 0.0266146 -0.013424 0.000423 -0.0558551 0.0664181 0.070885 2650 
1990 1 -0.0671628 -0.0271582 -0.0126386 0.000656 -1.21407 -0.113861 6.31024 2650 
2705 1 -0.0676711 -0.0164442 -0.0128457 0.000116 -1.16053 0.305681 5.95023 2650 
3551 1 -0.00690146 0.000405773 -0.0128707 0.000423 -0.015336 0.00523015 0.00637389 2650 
4126 1 -0.00550232 0.000368049 -0.0131511 0.000116 -0.0261531 0.0084042 0.00402279 2650 
2525 1 -0.004063 0.00100102 -0.013231 4.2e-05 0 -0.011753 0 2650 
3733 1 -0.00713098 0.00159761 -0.0133259 0.000656 -0.023221 0.0173181 0.0154659 2650 
2619 1 -0.005851 0.00181702 -0.012854 0.000116 0 -0.011753 0 2650 
3880 1 -0.010277 0.00273302 -0.012913 0.000423 0 -0.011753 0 2650 
2609 1 -0.00886 0.00254102 -0.013248 0.000116 0 -0.011753 0 2650 
3917 1 -0.003984 0.00330202 -0.012703 0.000116 0 -0.011753 0 2650 
2059 1 -0.003583 0.00351102 -0.012756 0.000116 0 -0.011753 0 2650 
234 1 -8.26175e-05 0.00333262 -0.0128824 0.000423 0.0351287 -0.0167305 0.0264562 2650 
1192 1 -0.00563786 0.00417476 -0.012692 0.000116 -0.0160738 0.0171838 -0.0228619 2650 
2912 1 -0.00557114 0.00519288 -0.0132112 0.000116 0.00196064 0.0151142 0.00117299 2650 
3446 1 -0.00205812 0.00528041 -0.0127436 0.000423 0.014297 -0.016402 -0.00312272 2650 
4078 1 -0.00970422 0.00596477 -0.0126687 0.000423 -0.0196946 -0.00953845 0.00130892 2650 
1427 1 -0.002948 0.00584202 -0.013376 4.2e-05 0 -0.011753 0 2650 
450 1 -0.00607343 0.0068874 -0.0129936 0.000656 0.0112424 0.0469319 0.00733295 2650 
104 1 -0.00318006 0.00632793 -0.0128272 4.2e-05 -0.00674979 0.0150481 0.0116551 2650 
2344 1 -0.000762847 0.00662617 -0.0128438 0.000423 0.00597873 -0.023338 -0.0226217 2650 
3259 1 -0.00899467 0.00731289 -0.0128555 0.000116 0.00491448 -0.00683461 -0.00168833 2650 
1795 1 -0.00875751 0.00787876 -0.012967 0.000423 -0.00370069 -0.00801652 0.00216388 2650 
1237 1 -0.00963136 0.00832745 -0.0133834 0.000423 0.0146777 0.0141302 -0.00833191 2650 
205 1 -0.000744 0.00855802 -0.01334 0.000116 0 -0.011753 0 2650 
3847 1 -0.0095726 0.00913445 -0.0126586 0.000656 0.00223772 0.0142639 -0.00523739 2650 
2483 1 -0.0085488 0.00895012 -0.0129514 0.000116 0.0222317 -0.00887276 -0.000700143 2650 
508 1 -0.0104154 0.0100921 -0.0130334 0.000116 -0.0281885 0.0711476 0.0146726 2650 
1775 1 -0.0082305 0.0113302 -0.0130555 0.000423 -7.29146e-05 -0.011186 -0.000346901 2650 
949 1 -0.00710204 0.0119228 -0.012953 0.000116 -0.0176518 0.0277962 -0.00593252 2650 
3632 1 -0.0102903 0.0128086 -0.0130115 0.000423 -0.0216519 0.000467483 0.0139725 2650 
3106 1 -0.00895474 0.0127779 -0.0128284 0.000423 -0.042507 0.0242048 -0.0146805 2650 
1143 1 -0.000557368 0.0148765 -0.0127521 0.000423 0.0070315 0.0110531 -0.00616027 2650 
1195 1 -0.0107673 0.0242336 -0.013049 0.000116 0.0557766 0.0782116 -0.0138054 2650 
2010 1 -0.0674574 -0.0194989 -0.0123469 0.000423 -1.11504 0.0157732 6.07775 2650 
1863 1 -0.0679003 -0.0155923 -0.0119922 4.2e-05 -0.572544 -0.19331 3.41285 2650 
2681 1 -0.0674132 -0.0143012 -0.0125513 0.000423 -0.991608 0.15652 5.20017 2650 
2588 1 -0.0677933 -0.0122953 -0.0121664 0.000116 -1.02238 -0.722389 5.63179 2650 
4074 1 -0.0675084 -0.00412635 -0.012037 0.000423 -0.708264 0.0188746 4.3258 2650 
1763 1 -0.001143 -0.00231298 -0.012442 0.000656 0 -0.011753 0 2650 
2468 1 -0.00506532 -0.00136275 -0.0121238 0.000423 -0.0504222 0.0211365 0.000191011 2650 