ITEM: TIMESTEP
10430868
ITEM: NUMBER OF ATOMS
4336
ITEM: BOX BOUNDS ff ff ff
-0.15 0.15
-0.15 0.06
-0.15 0.15
ITEM: ATOMS id type x y z radius vx vy vz density 
1753 1 -0.123092 -0.0632503 -0.0475372 4.2e-05 -8.93997 -0.078828 1.63436 2650 
983 1 -0.118082 -0.062848 0.0131471 4.2e-05 -8.22916 -0.0809869 7.36178 2650 
1952 1 -0.0978237 -0.0223108 -0.0496167 0.000116 -10.9316 -0.307507 2.30495 2650 
1609 1 -0.122956 -0.0121095 -0.0495391 0.000116 -11.0101 0.80265 1.81406 2650 
2317 1 -0.00650468 -0.0465206 -0.0680367 0.000656 -8.83309 -0.003646 0.842385 2650 
51 1 -0.0130836 -0.0492036 -0.0673194 0.000423 -7.9455 -0.114041 1.53628 2650 
1638 1 -0.0184876 -0.0595932 -0.0663565 0.000116 -5.64447 0.432356 1.56165 2650 
1903 1 -0.017016 -0.0467771 -0.066434 0.000423 -7.65752 -0.0130792 1.95147 2650 
1462 1 -0.0224462 -0.0524488 -0.064801 0.000423 -6.90451 0.185166 2.41302 2650 
1196 1 -0.0445547 -0.0515727 -0.0525341 0.000116 -4.38022 0.514608 3.69556 2650 
3079 1 -0.0466432 -0.048205 -0.0499113 0.000656 -6.00144 -0.0520504 5.59395 2650 
4288 1 -0.0515027 -0.046002 -0.0452821 0.000423 -4.88208 -0.0680546 5.54023 2650 
3409 1 -0.0535385 -0.0513133 -0.0424858 0.000656 -5.03213 -0.0282822 6.32245 2650 
2578 1 -0.0592707 -0.048219 -0.0344943 0.000423 -4.26569 0.176808 7.35444 2650 
3570 1 -0.0642116 -0.0573373 -0.0249303 0.000116 -2.90745 -0.179559 7.46597 2650 
1619 1 -0.0681746 -0.057145 -0.0098568 0.000116 -1.05669 -0.211157 7.35654 2650 
3943 1 -0.0689431 -0.0478756 -0.00143999 4.2e-05 -0.133337 0.776858 6.24025 2650 
482 1 -0.0683381 -0.0604191 0.00572679 0.000423 0.635176 -0.00656322 7.27455 2650 
1945 1 -0.0669126 -0.0474576 0.0163601 0.000116 1.72432 0.231206 7.06317 2650 
3812 1 -0.0655448 -0.0624343 0.0211889 0.000116 4.74393 0.242058 14.6575 2650 
3440 1 -0.0596425 -0.0451506 0.0338339 0.000423 4.5426 0.0316073 8.02154 2650 
816 1 -0.0550457 -0.0519696 0.0409023 0.000423 4.28065 -0.35619 5.77343 2650 
2201 1 -0.0521267 -0.0515577 0.0442063 0.000656 5.24505 -0.0711606 6.18396 2650 
2857 1 -0.0526012 -0.0461176 0.0436398 0.000656 4.91347 0.0314181 5.95336 2650 
3308 1 -0.0509283 -0.0497777 0.045926 0.000423 4.72239 0.0158146 5.27164 2650 
3154 1 -0.0458728 -0.0508578 0.0513607 0.000116 5.86723 -0.734092 5.26959 2650 
1528 1 -0.0276045 -0.0492675 0.0631112 0.000116 5.55679 -0.130646 2.40675 2650 
3957 1 -0.0227927 -0.0529988 0.064434 0.000656 7.5744 -0.0591119 2.68965 2650 
3038 1 -0.00807912 -0.057221 0.0684086 0.000116 5.93047 0.0981197 0.706299 2650 
2606 1 -0.004317 -0.0313225 -0.0687484 0.000116 -7.73652 0.0993129 0.492206 2650 
1740 1 -0.00150747 -0.0197193 -0.0688671 0.000116 -6.35526 0.735542 0.159968 2650 
747 1 -0.00125037 -0.0204196 -0.0689048 0.000116 -7.57616 0.149679 -0.265673 2650 
2588 1 -0.00462878 -0.0196544 -0.0687279 0.000116 -5.82688 -0.652775 0.383058 2650 
838 1 -0.00443086 -0.0167285 -0.0687413 0.000116 -6.94967 -0.536835 0.450086 2650 
71 1 -0.0054148 -0.0159975 -0.0686709 0.000116 -9.39343 0.448458 0.736936 2650 
3585 1 -0.00368944 -0.0139068 -0.0687848 0.000116 -6.31093 0.144002 0.339577 2650 
3256 1 -0.00076946 -0.0116308 -0.0688775 0.000116 -7.11563 -0.00530901 0.213041 2650 
1419 1 -0.00525281 -0.00573249 -0.0686832 0.000116 -6.62019 -0.427807 0.519527 2650 
3586 1 -0.0008899 -0.00391047 -0.0688781 0.000116 -5.56437 -0.121553 0.0409866 2650 
152 1 -0.00344998 -0.0392287 -0.068491 0.000423 -7.77371 -0.165067 0.383411 2650 
468 1 -0.00458774 -0.0373551 -0.068424 0.000423 -7.75639 -0.149296 0.531946 2650 
1544 1 -0.00515982 -0.0347291 -0.0681518 0.000656 -7.84407 -0.0528685 0.561755 2650 
3040 1 -0.00985271 -0.0317927 -0.0681763 0.000116 -7.19808 -0.00927701 1.05038 2650 
1687 1 -0.00450573 -0.0309255 -0.0684302 0.000423 -7.76464 0.0732434 0.511235 2650 
4255 1 -0.0116387 -0.0304691 -0.0678944 0.000116 -7.87462 0.989588 1.35176 2650 
1249 1 -0.0093658 -0.0305377 -0.0679366 0.000423 -7.22714 -0.0238247 1.00067 2650 
3367 1 -0.0105603 -0.0285415 -0.0680702 0.000116 -7.25558 0.436568 1.13516 2650 
4268 1 -0.00920807 -0.024049 -0.0683399 4.2e-05 -6.75964 -0.298275 0.902119 2650 
2371 1 -0.0114941 -0.0236566 -0.0679183 0.000116 -7.08486 -0.0867332 1.20399 2650 
2404 1 -0.00970993 -0.0236231 -0.0681959 0.000116 -7.00664 0.0550342 1.00443 2650 
981 1 -0.00893998 -0.0148286 -0.0683761 4.2e-05 -6.46337 0.0244593 0.85536 2650 
2310 1 -0.00717205 -0.0149046 -0.068584 4.2e-05 -5.98636 -0.291916 0.628373 2650 
385 1 -0.00387174 -0.01343 -0.0684679 0.000423 -5.21469 -0.160886 0.278627 2650 
2875 1 -0.00311561 -0.0124478 -0.0685068 0.000423 -5.23396 -0.0358566 0.246392 2650 
646 1 -0.00597434 -0.0118107 -0.0686244 0.000116 -5.71592 -0.0901581 0.519534 2650 
404 1 -0.00963955 -0.0104228 -0.0682068 0.000116 -6.02836 0.526979 0.886354 2650 
1170 1 -0.00544744 -0.00966737 -0.0686683 0.000116 -5.34071 0.0526191 0.436322 2650 
3986 1 -0.00918936 -0.00829909 -0.0679602 0.000423 -5.8911 -0.179572 0.797175 2650 
3534 1 -0.0130039 -0.0433038 -0.0673335 0.000423 -7.97893 0.141678 1.55321 2650 
2091 1 -0.00855384 -0.0427296 -0.0678096 0.000656 -7.90315 0.0560247 0.984538 2650 
1612 1 -0.0147494 -0.0420409 -0.0672863 0.000116 -8.43728 -0.286123 1.85012 2650 
4035 1 -0.0134976 -0.0415742 -0.0675491 0.000116 -7.97034 0.0015485 1.59322 2650 
2790 1 -0.0129815 -0.0350545 -0.0673386 0.000423 -7.29639 -0.0643694 1.39456 2650 
1471 1 -0.0106898 -0.0352057 -0.0677399 0.000423 -7.21264 -0.281974 1.12717 2650 
3089 1 -0.0119653 -0.0316429 -0.0675274 0.000423 -7.24603 -0.0187089 1.29445 2650 
239 1 -0.00986562 -0.0312167 -0.0678652 0.000423 -7.24103 -0.00641063 1.0541 2650 
3330 1 -0.013082 -0.030255 -0.0673191 0.000423 -7.20228 -0.0286641 1.41416 2650 
3196 1 -0.0112398 -0.0294978 -0.0676513 0.000423 -7.22591 0.0132837 1.19979 2650 
3140 1 -0.0132561 -0.023611 -0.0675963 0.000116 -8.26763 -1.7999 1.6249 2650 
1987 1 -0.0116987 -0.0205986 -0.0673378 0.000656 -6.58874 0.14606 1.14535 2650 
862 1 -0.0143235 -0.0192265 -0.0673782 0.000116 -6.85256 0.689529 1.46847 2650 
921 1 -0.0110889 -0.0191597 -0.0676754 0.000423 -7.03515 -0.0554381 1.15635 2650 
365 1 -0.0117514 -0.0180326 -0.0675633 0.000423 -7.14016 -0.160252 1.28357 2650 
1503 1 -0.0146849 -0.0136059 -0.0673 0.000116 -6.18272 0.0839966 1.35744 2650 
491 1 -0.0112515 -0.0141803 -0.0676493 0.000423 -6.14855 -0.0774025 1.04031 2650 
3069 1 -0.0156346 -0.00198396 -0.0671616 4.2e-05 -7.12351 -0.429394 1.6577 2650 
4316 1 -0.0158755 -0.0431389 -0.0667145 0.000423 -8.14605 -0.0381602 1.96014 2650 
343 1 -0.0175951 -0.0412286 -0.0662832 0.000423 -8.94087 0.0255101 2.37019 2650 
355 1 -0.0164787 -0.0403368 -0.0665685 0.000423 -7.59516 -0.229633 1.87189 2650 
4308 1 -0.0149983 -0.0399406 -0.0669175 0.000423 -7.91329 -0.129945 1.78561 2650 
115 1 -0.0158551 -0.039452 -0.0664814 0.000656 -7.77748 -0.0544366 1.83849 2650 
3000 1 -0.0176364 -0.0382236 -0.0662706 0.000423 -7.69492 -0.125694 2.04823 2650 
2862 1 -0.0148395 -0.0353387 -0.0667143 0.000656 -7.4774 0.0426941 1.67785 2650 
122 1 -0.013963 -0.0341723 -0.0669058 0.000656 -7.29694 -0.0205868 1.53801 2650 
2208 1 -0.0165746 -0.0262955 -0.0663065 0.000656 -7.40864 -0.0040563 1.86272 2650 
1787 1 -0.0148746 -0.0264671 -0.066945 0.000423 -7.22821 0.202433 1.60004 2650 
1499 1 -0.0185257 -0.0232316 -0.0663452 0.000116 -7.44746 0.303199 2.08232 2650 
3574 1 -0.0166749 -0.0227872 -0.0668348 0.000116 -7.25065 0.22012 1.79433 2650 
3470 1 -0.0157314 -0.0205625 -0.0670643 0.000116 -6.70812 0.708147 1.56352 2650 
3964 1 -0.0147612 -0.0213066 -0.0669706 0.000423 -7.23104 0.255537 1.58908 2650 
319 1 -0.0163003 -0.0138168 -0.0669271 0.000116 -6.28802 0.139615 1.54524 2650 
4132 1 -0.0180927 -0.0121068 -0.0664632 0.000116 -6.1215 0.200898 1.58879 2650 
980 1 -0.0176409 -0.00813189 -0.0666609 4.2e-05 -6.45359 0.68523 1.65034 2650 
1326 1 -0.0189042 -0.0432505 -0.0656787 0.000656 -7.67007 0.0302046 2.23364 2650 
2237 1 -0.0187676 -0.0359323 -0.0659582 0.000423 -7.93364 0.0566825 2.22688 2650 
577 1 -0.0180988 -0.0322931 -0.0661417 0.000423 -7.08022 -0.0974535 1.88221 2650 
2242 1 -0.0183388 -0.0279671 -0.0660731 0.000423 -7.35111 -0.068918 2.03061 2650 
335 1 -0.0176087 -0.0270977 -0.0660338 0.000656 -7.33834 -0.045532 1.99085 2650 
4319 1 -0.0195387 -0.0267342 -0.0657271 0.000423 -7.14698 -0.0398624 2.1456 2650 
2245 1 -0.0184815 -0.0264247 -0.0660378 0.000423 -7.3628 -0.0338837 2.01634 2650 
2251 1 -0.0191605 -0.0259411 -0.0658414 0.000423 -7.30569 0.0387577 2.11433 2650 
1111 1 -0.0181802 -0.0251236 -0.0658807 0.000656 -7.47307 0.00502576 2.05933 2650 
4052 1 -0.0199649 -0.0193975 -0.0660045 4.2e-05 -6.61057 -0.104209 1.98734 2650 
1958 1 -0.0198341 -0.0174819 -0.0659642 0.000116 -6.80331 -0.574888 2.06505 2650 
2296 1 -0.0192541 -0.0176046 -0.0661351 0.000116 -6.39032 -0.137186 1.84466 2650 
3378 1 -0.0188761 -0.00660621 -0.0662408 0.000116 -6.06353 -0.383202 1.7025 2650 
94 1 -0.0200104 -0.00395055 -0.0659115 0.000116 -5.69485 0.042035 1.74156 2650 
4187 1 -0.0212024 -0.0418632 -0.0652175 0.000423 -8.21289 -0.122017 2.66918 2650 
2212 1 -0.0217386 -0.0284433 -0.0647569 0.000656 -7.18056 -0.044279 2.40341 2650 
4342 1 -0.0221445 -0.0246102 -0.0652247 0.000116 -6.67151 0.0186561 2.2686 2650 
3539 1 -0.0225988 -0.0191488 -0.0647468 0.000423 -6.37775 -0.0874414 2.16884 2650 
670 1 -0.0198295 -0.0167025 -0.0654051 0.000656 -6.48737 -0.0767949 2.01581 2650 
1312 1 -0.0237414 -0.011136 -0.0647248 4.2e-05 -4.21265 -1.67734 1.68289 2650 
2605 1 -0.0234507 -0.00624225 -0.0647472 0.000116 -4.20611 0.0332654 1.66064 2650 
2327 1 -0.024744 -0.0319814 -0.0639572 0.000423 -7.04541 -0.0172998 2.73168 2650 
588 1 -0.0237766 -0.0226223 -0.0643179 0.000423 -6.70357 -0.329285 2.50829 2650 
2355 1 -0.0224947 -0.0203628 -0.064269 0.000423 -7.28918 -0.213333 2.63811 2650 
4108 1 -0.0241036 -0.00755125 -0.0642002 0.000423 -4.21782 -0.149723 1.78092 2650 
2367 1 -0.0239226 -0.00132862 -0.0645904 0.000116 -6.56504 -0.280052 2.46986 2650 
4297 1 -0.0263736 -0.0333325 -0.0633035 0.000423 -6.33047 0.0428406 2.65278 2650 
2072 1 -0.0261618 -0.0287053 -0.0637222 0.000116 -6.70665 0.349762 2.74412 2650 
2705 1 -0.0271398 -0.0254778 -0.0633119 0.000116 -6.4006 0.0880349 2.73869 2650 
4221 1 -0.0271221 -0.0207476 -0.0633198 0.000116 -7.22875 0.558848 3.08966 2650 
1699 1 -0.0267669 -0.00824993 -0.0631382 0.000423 -3.93103 -0.457881 1.65413 2650 
658 1 -0.0272211 -0.00268223 -0.0633568 4.2e-05 -6.05025 -0.141838 2.60251 2650 
3425 1 -0.0278607 -0.039332 -0.0626634 0.000423 -7.60231 0.0405683 3.38681 2650 
2028 1 -0.0295499 -0.0345021 -0.0618849 0.000423 -6.30748 -0.0332502 3.02006 2650 
4147 1 -0.0307997 -0.0247219 -0.0616148 0.000116 -5.97292 -0.300871 2.97712 2650 
4323 1 -0.0296432 -0.0220056 -0.0618408 0.000423 -6.51804 0.0843943 3.12439 2650 
4128 1 -0.0298026 -0.0138739 -0.0621034 0.000116 -6.16863 0.219288 2.95759 2650 
2987 1 -0.0288297 -0.00740288 -0.0622234 0.000423 -4.51336 -0.527907 2.07661 2650 
1303 1 -0.0299147 -0.000137363 -0.0620491 0.000116 -5.51773 -0.00261713 2.65929 2650 
2559 1 -0.0312349 -0.0259276 -0.0610517 0.000423 -6.33222 0.0227972 3.24446 2650 
3694 1 -0.0321662 -0.00304134 -0.0609123 0.000116 -5.68636 -0.306874 3.00622 2650 
3382 1 -0.0323225 -0.000690464 -0.0608297 0.000116 -4.9787 -0.152241 2.63021 2650 
1568 1 -0.032672 -0.0420727 -0.0602945 0.000423 -6.60345 -0.461452 3.57192 2650 
2010 1 -0.032865 -0.0305458 -0.0601907 0.000423 -6.39039 -0.023988 3.51293 2650 
1466 1 -0.0320026 -0.00468567 -0.0606529 0.000423 -5.649 0.1452 2.9654 2650 
3314 1 -0.0347058 -0.0390301 -0.0591477 0.000423 -6.50279 0.0213326 3.82599 2650 
3181 1 -0.0347241 -0.0383137 -0.0595771 4.2e-05 -5.32589 -1.03809 3.08831 2650 
817 1 -0.0337397 -0.0252697 -0.0597045 0.000423 -6.28111 -0.0362228 3.54323 2650 
1960 1 -0.0353366 -0.0252048 -0.0591297 0.000116 -5.97648 -0.0544163 3.57197 2650 
3329 1 -0.0340494 -0.0232879 -0.0595275 0.000423 -6.2334 -0.0215766 3.57746 2650 
3192 1 -0.0364808 -0.0316041 -0.057798 0.000656 -6.16299 -0.0356213 3.89618 2650 
2380 1 -0.0368762 -0.0239896 -0.058182 0.000116 -6.07498 0.17693 3.84799 2650 
844 1 -0.037463 -0.0134953 -0.0578041 0.000116 -6.23839 -0.00844395 4.0336 2650 
2086 1 -0.0375586 -0.0103056 -0.0578318 4.2e-05 -4.18668 -0.265505 2.70664 2650 
1180 1 -0.0377931 -0.00559655 -0.0575885 0.000116 -5.11087 -0.100577 3.32337 2650 
753 1 -0.0383271 -0.0320487 -0.0572377 0.000116 -5.73611 1.29856 3.8378 2650 
1996 1 -0.0375379 -0.0284833 -0.057393 0.000423 -6.17572 0.221261 4.04728 2650 
3671 1 -0.0377307 -0.022316 -0.0572654 0.000423 -6.19338 0.286683 4.07783 2650 
3304 1 -0.039556 -0.0315423 -0.0560209 0.000423 -5.46691 0.195032 3.84748 2650 
3930 1 -0.0389958 -0.00349648 -0.0567824 0.000116 -3.39777 0.572993 2.32429 2650 
3349 1 -0.0403924 -0.0341569 -0.0557989 0.000116 -5.26217 -0.237569 3.83646 2650 
2247 1 -0.0397304 -0.0304898 -0.0558975 0.000423 -6.09745 0.07471 4.39537 2650 
250 1 -0.0406183 -0.0266271 -0.0552553 0.000423 -6.23155 0.157572 4.6026 2650 
671 1 -0.0397068 -0.0261857 -0.0556296 0.000656 -6.27221 0.135432 4.49397 2650 
1445 1 -0.0398635 -0.0175579 -0.0558021 0.000423 -5.63968 0.17632 4.03625 2650 
2865 1 -0.0407343 -0.0287541 -0.0548818 0.000656 -6.07646 -0.0352871 4.50528 2650 
3688 1 -0.0416203 -0.0277095 -0.0548887 0.000116 -4.74691 -0.647209 3.59235 2650 
3785 1 -0.0422361 -0.00795648 -0.0543847 0.000116 -5.14745 -0.128045 3.9072 2650 
4305 1 -0.0416853 -0.00770585 -0.0544333 0.000423 -5.17794 0.0149628 3.83981 2650 
3134 1 -0.0421426 -0.00337305 -0.0544821 0.000116 -4.18666 0.0901008 3.19381 2650 
2037 1 -0.0432767 -0.0404003 -0.0535921 0.000116 -5.12306 -0.0401849 4.11341 2650 
2779 1 -0.0423078 -0.0289987 -0.0539722 0.000423 -5.4042 -0.109756 4.28079 2650 
2118 1 -0.0418542 -0.0283821 -0.0543248 0.000423 -5.85057 0.242097 4.45092 2650 
208 1 -0.043695 -0.0145678 -0.0532278 0.000116 -5.80135 -0.133605 4.78809 2650 
1751 1 -0.0449351 -0.0253419 -0.052307 4.2e-05 -6.18592 0.0483166 5.32063 2650 
2031 1 -0.0441919 -0.00735469 -0.0524184 0.000423 -4.31507 0.403697 3.77348 2650 
1157 1 -0.0444722 -0.00650922 -0.0525867 0.000116 -4.39219 0.502759 3.85177 2650 
2274 1 -0.0453173 -0.0272719 -0.0518765 0.000116 -6.19765 -0.263002 5.41778 2650 
2820 1 -0.0465213 -0.0077944 -0.0508006 0.000116 -4.41754 0.350567 4.04893 2650 
1852 1 -0.0474635 -0.0237716 -0.049917 0.000116 -4.38099 -0.59759 4.11607 2650 
2418 1 -0.0484578 -0.0435895 -0.0490593 4.2e-05 -4.08916 0.737571 4.03355 2650 
399 1 -0.0480178 -0.0368768 -0.0493826 0.000116 -6.03079 1.24411 5.86798 2650 
2019 1 -0.0478949 -0.019495 -0.0490821 0.000423 -4.38197 -0.315807 4.25955 2650 
814 1 -0.048853 -0.013112 -0.0481286 0.000423 -4.57847 -0.218998 4.6291 2650 
1734 1 -0.0489937 -0.0109584 -0.0484215 0.000116 -3.63069 -0.329928 3.67169 2650 
1955 1 -0.0512272 -0.0135246 -0.0460526 0.000116 -4.68269 0.00783725 5.19781 2650 
3093 1 -0.0506231 -0.0119826 -0.0462634 0.000423 -2.8536 -0.398549 3.1413 2650 
197 1 -0.0519724 -0.0207026 -0.0452098 0.000116 -4.97917 0.175087 5.72033 2650 
4068 1 -0.0516258 -0.0154312 -0.0451414 0.000423 -4.7551 -0.101047 5.46695 2650 
2544 1 -0.0513264 -0.0145427 -0.0454825 0.000423 -4.8724 0.0450109 5.48632 2650 
2198 1 -0.0518078 -4.2022e-05 -0.0455095 4.2e-05 -4.37882 -0.000223321 4.99382 2650 
3863 1 -0.0523188 -0.0207004 -0.0443365 0.000423 -4.97474 -0.190575 5.88945 2650 
971 1 -0.0526652 -0.0114266 -0.0444017 0.000116 -3.11781 -0.603189 3.71308 2650 
4285 1 -0.0520365 -0.0102048 -0.0446679 0.000423 -2.88507 -0.319143 3.36852 2650 
1378 1 -0.0527217 -0.00453588 -0.0443334 0.000116 -3.76406 0.370986 4.4601 2650 
672 1 -0.0526797 -0.0361621 -0.043545 0.000656 -5.22509 -0.0586004 6.35669 2650 
3741 1 -0.0529372 -0.0196008 -0.0435961 0.000423 -4.91101 -0.13637 5.94983 2650 
3381 1 -0.0533358 -0.00933274 -0.0435941 0.000116 -4.61613 -0.107064 5.62844 2650 
1924 1 -0.0535953 -0.0315769 -0.0427858 0.000423 -4.47031 -0.0705985 5.59068 2650 
744 1 -0.0540619 -0.00016806 -0.0426887 0.000116 -3.51548 -0.010391 4.46256 2650 
691 1 -0.054344 -0.0448961 -0.0418295 0.000423 -4.62231 0.0428914 6.00514 2650 
2051 1 -0.0545422 -0.035516 -0.0420733 0.000116 -4.22166 0.587699 5.47009 2650 
518 1 -0.054297 -0.0229526 -0.0423883 0.000116 -3.63999 0.0270307 4.69428 2650 
2039 1 -0.0542748 -0.0165096 -0.0424175 0.000116 -4.06836 -0.54306 5.20576 2650 
3959 1 -0.054566 -0.0260854 -0.0415395 0.000423 -4.49826 0.0854084 5.93721 2650 
353 1 -0.0548501 -0.0217541 -0.0411627 0.000423 -4.45534 -0.0979723 5.93115 2650 
3155 1 -0.0549919 -0.00121687 -0.0414832 0.000116 -3.57546 -0.258162 4.73723 2650 
2817 1 -0.0563226 -0.0276375 -0.0396587 0.000116 -4.48156 -0.785476 6.37449 2650 
3055 1 -0.0563594 -0.0142728 -0.0396067 0.000116 -4.20305 -0.89395 5.97552 2650 
56 1 -0.0558155 -0.0137044 -0.0398449 0.000423 -4.14832 -0.124763 5.82853 2650 
1082 1 -0.0562675 -0.0133435 -0.039737 0.000116 -4.02893 0.348519 5.68485 2650 
424 1 -0.0562783 -0.0120655 -0.0397221 0.000116 -3.73004 0.835352 5.30011 2650 
1591 1 -0.0564474 -0.0400365 -0.0389438 0.000423 -4.35129 -0.121518 6.34693 2650 
1784 1 -0.0564725 -0.0155019 -0.0389079 0.000423 -4.00613 -0.171144 5.85497 2650 
3522 1 -0.0569412 -0.0279264 -0.038218 0.000423 -4.20862 -0.0641904 6.29471 2650 
327 1 -0.0581017 -0.0402873 -0.03714 4.2e-05 -3.63859 0.325488 5.68009 2650 
2775 1 -0.0575808 -0.0247953 -0.0372475 0.000423 -4.02672 -0.331384 6.19871 2650 
538 1 -0.0580333 -0.00904688 -0.0371103 0.000116 -2.99087 0.479974 4.67521 2650 
1938 1 -0.0576033 -0.00893111 -0.0377744 0.000116 -2.74533 0.0393125 4.17847 2650 
3619 1 -0.0582013 -0.00597047 -0.0369838 4.2e-05 -3.24101 -0.221066 5.11698 2650 
3873 1 -0.0576952 -0.00298977 -0.0370707 0.000423 -3.34429 -0.246532 5.19373 2650 
82 1 -0.058361 -0.0246857 -0.0365924 0.000116 -3.4919 0.131779 5.57698 2650 
827 1 -0.058845 -0.0293114 -0.0358086 0.000116 -3.75929 0.278745 6.17475 2650 
4320 1 -0.0589464 -0.0199355 -0.0350467 0.000423 -3.91234 -0.0807914 6.56688 2650 
1798 1 -0.0589599 -0.0188519 -0.0350232 0.000423 -3.81267 0.0862376 6.40011 2650 
800 1 -0.0598066 -0.0327493 -0.0335578 0.000423 -2.75891 0.17974 4.92823 2650 
1193 1 -0.000136409 -0.00384711 -0.0337153 0.000116 -0.0203347 -0.0825938 -5.02598 2650 
426 1 -0.0606537 -0.022775 -0.0326428 0.000116 -2.92532 -0.0280587 5.31963 2650 
2395 1 -0.0606635 -0.0110495 -0.0326144 0.000116 -3.93978 0.930917 7.1937 2650 
4286 1 -0.0605776 -0.0241661 -0.0321287 0.000423 -3.62303 -0.0570946 6.79494 2650 
1214 1 -0.0606755 -0.0233335 -0.0314424 0.000656 -3.52664 -0.0313616 6.80823 2650 
440 1 -0.00160349 -0.00374667 -0.0301902 4.2e-05 -0.232937 -0.0747981 -4.38571 2650 
1323 1 -0.061507 -0.0298651 -0.0297447 0.000656 -3.27147 -0.0433267 6.85145 2650 
3989 1 -0.0617603 -0.0261402 -0.0297747 0.000423 -3.27943 -0.0140812 6.90239 2650 
3960 1 -0.0619502 -0.0253594 -0.0294023 0.000423 -3.12208 0.221249 6.62442 2650 
167 1 -0.0622356 -0.0248882 -0.0295127 0.000116 -3.04438 0.288864 6.48655 2650 
229 1 -0.061758 -0.0240173 -0.029261 0.000656 -2.98103 0.0716025 6.34821 2650 
850 1 -0.0627412 -0.0275001 -0.0284201 0.000116 -3.10895 -0.320083 6.81528 2650 
4056 1 -0.0620188 -0.0272291 -0.0287181 0.000656 -3.19946 -0.0466875 6.80189 2650 
3005 1 -0.0621433 -0.0261369 -0.0289997 0.000423 -3.06267 0.0180593 6.44989 2650 
1417 1 -0.0626435 -0.0179244 -0.0286475 0.000116 -2.69381 -0.0349785 5.81428 2650 
4325 1 -0.062364 -0.0173612 -0.0285194 0.000423 -2.59323 0.129699 5.61501 2650 
2329 1 -0.0623771 -0.00336771 -0.0284912 0.000423 -2.21873 -0.26541 4.83698 2650 
955 1 -0.062798 -0.000115994 -0.0283089 0.000116 -2.71001 0.00097332 6.00107 2650 
1990 1 -0.062524 -0.0284749 -0.0275795 0.000656 -3.09056 -0.2693 6.97473 2650 
159 1 -0.0626533 -0.02744 -0.0278662 0.000423 -3.05709 -0.279923 6.88061 2650 
3636 1 -0.0629463 -0.0186894 -0.0272145 0.000423 -2.95099 0.0529 6.81166 2650 
3920 1 -0.0634557 -0.0122719 -0.0268023 0.000116 -2.72156 -0.320354 6.35709 2650 
2877 1 -0.0631058 -0.0106571 -0.026843 0.000423 -2.67906 -0.0618704 6.4236 2650 
3807 1 -0.0636062 -0.0214107 -0.0264434 0.000116 -2.54515 -0.385128 6.12596 2650 
3337 1 -0.0632226 -0.0192956 -0.0265672 0.000423 -2.84436 -0.218092 6.76669 2650 
375 1 -0.0632689 -0.0154397 -0.0264581 0.000423 -2.53033 0.0706362 6.0363 2650 
3786 1 -0.0635938 -0.0110828 -0.0264681 0.000116 -2.7148 -0.170232 6.45406 2650 
1197 1 -0.0636575 -0.0049597 -0.0263174 0.000116 -1.53459 -0.0168863 3.75274 2650 
626 1 -0.0637324 -0.00483915 -0.0261336 0.000116 -1.58058 -0.025553 3.737 2650 
416 1 -0.0639461 -0.0171021 -0.0256066 0.000116 -2.60184 -0.405473 6.53938 2650 
4133 1 -0.0641816 -0.0433481 -0.025011 0.000116 -2.6242 -0.344736 6.71286 2650 
3204 1 -0.0640283 -0.013399 -0.0245577 0.000423 -2.46431 0.160466 6.41683 2650 
2680 1 -0.0638553 -0.00272724 -0.0250091 0.000423 -2.40884 2.17724 6.13193 2650 
2833 1 -0.0646167 -0.0385237 -0.0238668 0.000116 -2.42866 -0.310853 6.62328 2650 
1493 1 -0.0647085 -0.0367887 -0.0236161 0.000116 -2.05601 -0.268317 5.62901 2650 
2055 1 -0.0646036 -0.0332425 -0.0239024 0.000116 -2.36663 -0.242231 6.42572 2650 
4213 1 -0.0641734 -0.0275459 -0.0241785 0.000423 -2.55864 -0.105731 6.80687 2650 
3963 1 -0.0641401 -0.016508 -0.0242683 0.000423 -2.51786 0.0128912 6.62382 2650 
2728 1 -0.0645647 -0.0111284 -0.0240087 0.000116 -2.19921 -0.0934952 5.89704 2650 
872 1 -0.0646034 -0.00237828 -0.0241141 4.2e-05 -2.3526 -0.162848 6.28654 2650 
306 1 -0.0645167 -0.00011602 -0.0241365 0.000116 -2.2902 0.00076393 6.13854 2650 
2672 1 -0.0646629 -0.0252185 -0.0228398 0.000423 -2.51253 -0.189538 7.16628 2650 
1455 1 -0.0644961 -0.0203347 -0.0233096 0.000423 -2.4065 -0.20141 6.6538 2650 
338 1 -0.06433 -0.0162723 -0.0230853 0.000656 -2.40484 0.114984 6.6857 2650 
2414 1 -0.0500764 -0.00427232 -0.0234047 4.2e-05 -7.76414 -0.109619 -3.62881 2650 
2591 1 -0.0650972 -0.0169344 -0.0225241 0.000116 -2.35999 -0.137869 6.82873 2650 
848 1 -0.0153986 -0.00387049 -0.022214 0.000116 -2.30277 -0.0844086 -3.32126 2650 
1716 1 -0.0655582 -0.0300094 -0.0211482 0.000116 -2.44351 0.154271 7.54663 2650 
3260 1 -0.0655632 -0.0241456 -0.0211289 0.000116 -2.44516 -0.0315516 7.58177 2650 
3673 1 -0.00369152 -0.00850556 -0.0214703 0.000423 -0.426444 -1.37533 -2.26048 2650 
1185 1 -0.0657843 -0.0304877 -0.0204331 0.000116 -2.21469 -0.593948 7.10597 2650 
574 1 -0.0652595 -0.0272328 -0.0210773 0.000423 -2.17019 0.0598614 6.8189 2650 
4069 1 -0.0654081 -0.0265431 -0.0206099 0.000423 -2.13062 0.0758699 6.80651 2650 
3339 1 -0.0654447 -0.0246395 -0.0204922 0.000423 -2.28207 -0.222476 7.25259 2650 
2298 1 -0.0659171 -0.0246812 -0.0199989 0.000116 -2.1583 0.277834 7.08754 2650 
2117 1 -0.065588 -0.0239141 -0.0200291 0.000423 -2.17727 -0.17035 7.07517 2650 
2386 1 -0.0658518 -0.0229712 -0.0202117 0.000116 -2.19276 -0.0689024 7.1185 2650 
2717 1 -0.0661475 -0.0294632 -0.0192251 0.000116 -1.31453 -1.40401 4.59841 2650 
3276 1 -0.0662613 -0.0260897 -0.0188269 0.000116 -2.04668 -0.150728 7.20122 2650 
758 1 -0.0662034 -0.0259021 -0.0190303 0.000116 -2.0817 0.0821893 7.27801 2650 
1510 1 -0.0660782 -0.0159729 -0.0194603 0.000116 -2.02797 0.565565 6.87595 2650 
625 1 -0.066196 -0.00593696 -0.0190564 0.000116 -2.06524 0.66843 7.17904 2650 
4204 1 -0.0660752 -0.025878 -0.018358 0.000423 -2.00427 -0.2008 7.21988 2650 
3605 1 -0.0663287 -0.0252399 -0.0185879 0.000116 -2.02756 -0.111497 7.22488 2650 
1079 1 -0.0663594 -0.010432 -0.0184808 0.000116 -2.03383 0.548864 7.27506 2650 
3580 1 -0.0664747 -0.00816574 -0.0180608 0.000116 -1.86759 0.440569 6.85378 2650 
3477 1 -0.00611226 -0.00379899 -0.0182458 0.000116 -0.720334 -0.0976805 -2.17755 2650 
1593 1 -0.0663289 -0.0258968 -0.01742 0.000423 -1.93387 -0.144035 7.28133 2650 
1436 1 -0.0659511 -0.0243954 -0.0179351 0.000656 -2.05116 -0.517608 7.45909 2650 
2048 1 -0.0666487 -0.0127611 -0.0174079 0.000116 -1.76493 0.735464 6.77942 2650 
3137 1 -0.0666361 -0.001056 -0.017454 0.000116 -1.36811 0.0324168 5.26121 2650 
1447 1 -0.0664446 -0.0305619 -0.016974 0.000423 -1.7847 -0.222523 6.98494 2650 
606 1 -0.000183 0.00141269 -0.016592 0.000116 0 -0.011753 0 2650 
4227 1 -0.000457256 0.00380019 -0.0168219 0.000116 0.00593372 -0.017543 0.0130313 2650 
2520 1 -0.000240175 0.00489397 -0.0166773 4.2e-05 0.00318265 0.000380138 0.00682554 2650 
2851 1 -0.00170099 0.0144899 -0.0167368 4.2e-05 -0.261069 -0.140633 0.0469352 2650 
390 1 -0.0670413 -0.0260277 -0.015827 0.000116 -1.57223 -0.00939352 6.64175 2650 
2013 1 -0.00298392 0.00307693 -0.0158836 0.000423 -0.00154235 0.00221798 0.00156406 2650 
2301 1 -0.00432702 0.00346748 -0.0161031 4.2e-05 -0.00116259 -0.0070103 0.00459775 2650 
2283 1 -0.00352863 0.00439611 -0.0163876 0.000116 -0.00010552 0.00956354 0.000789399 2650 
889 1 -0.00164281 0.00435963 -0.0159045 0.000656 0.0239239 0.0130736 -0.0545072 2650 
1679 1 -0.00421905 0.0047644 -0.0157968 0.000423 -0.00453172 0.0157125 0.00260684 2650 
978 1 -0.00237323 0.00629856 -0.0164069 0.000116 0.0180122 -0.00353228 -0.00159853 2650 
3365 1 -0.00189867 0.00560377 -0.0162672 0.000116 0.0120999 0.0333262 -0.0498495 2650 
3934 1 -0.001977 0.00617469 -0.016218 0.000116 0 -0.011753 0 2650 
938 1 -0.00150921 0.00992243 -0.0159273 0.000116 -0.00119823 0.000558801 -0.00633771 2650 
302 1 -0.00101161 0.00980286 -0.0163032 0.000116 -0.0434127 0.0256721 -0.0191129 2650 
1483 1 -0.000481841 0.0103434 -0.0165007 0.000423 -0.00134867 0.0112238 -0.0085204 2650 
3007 1 -0.00281193 0.0113119 -0.0159821 0.000423 -0.00754521 0.0118776 -0.00214285 2650 
371 1 -0.000354058 0.0117921 -0.0161783 0.000423 -0.00963196 0.00951459 -0.00479058 2650 
188 1 -0.0029098 0.0131536 -0.0161997 0.000116 -0.0148612 0.0228045 0.00418427 2650 
2182 1 -0.00155577 0.0133783 -0.0165587 0.000116 0.00266263 0.0360122 0.0211071 2650 
2713 1 -0.000709305 0.0152869 -0.0159931 0.000116 0.00037122 0.035974 0.00535071 2650 
3165 1 -0.00355932 0.0184292 -0.0163474 0.000116 -0.247414 0.158145 0.0441213 2650 
30 1 -0.0020251 -0.00197694 -0.0155532 0.000423 -0.0139928 -0.0214008 0.00726417 2650 
3599 1 -0.000687981 -0.00167764 -0.0152956 0.000116 0.0260231 -0.00977207 -0.00117121 2650 
2399 1 -0.002418 0.00162669 -0.015541 0.000116 0 -0.011753 0 2650 
2474 1 -0.000166214 0.00217274 -0.0156688 0.000423 0.0307748 -0.0136667 -0.043701 2650 
3637 1 -0.00531115 0.00404276 -0.0154119 0.000423 -0.00704251 0.0124689 0.006236 2650 
1611 1 -0.0023484 0.00448471 -0.0155739 0.000116 0.0513704 -0.0152435 0.0155029 2650 
4300 1 -1.27161e-05 0.0040845 -0.0150376 0.000423 0.0101839 0.00179298 -0.0226263 2650 
1192 1 -0.00731857 0.00620164 -0.0150201 0.000116 0.00510585 0.0133553 0.012363 2650 
3830 1 -0.006879 0.00772669 -0.015411 4.2e-05 0 -0.011753 0 2650 
2438 1 -0.00615457 0.00725134 -0.0151322 0.000423 -0.00468347 -0.000292455 -0.00123863 2650 
2726 1 -0.000425035 0.00895829 -0.0154892 0.000116 -0.00741369 0.00988612 -0.041436 2650 
3150 1 -0.00190101 0.0102501 -0.015436 0.000116 -0.0182263 -0.0087302 -0.0269448 2650 
2781 1 -0.00591502 0.011118 -0.0150656 0.000423 0.00977627 0.0105103 0.0120467 2650 
70 1 -0.00351231 0.0127078 -0.0156515 0.000116 0.0560864 0.0328811 0.00597028 2650 
2793 1 -0.000987265 0.0127947 -0.0152084 0.000423 0.00400332 0.0260717 0.000754087 2650 
3051 1 -0.00585885 0.0187014 -0.0157106 0.000116 0.163555 -0.227841 -0.0207843 2650 
93 1 -0.00663397 0.0194401 -0.0155133 0.000116 0.0683401 0.0488097 -0.0337926 2650 
2466 1 -0.00394098 0.022172 -0.0153041 0.000423 0.0618857 0.0331724 -0.00268308 2650 
2585 1 -0.0014663 0.0262651 -0.0151019 0.000116 -0.0221426 0.0759057 0.0070692 2650 
1717 1 -0.00376274 0.0296455 -0.0154621 0.000116 -0.014717 0.0706098 -0.0348682 2650 
4244 1 -0.00257782 -0.0030074 -0.014382 0.000116 -0.0436806 -0.00994679 0.0125723 2650 
1053 1 -0.007469 -0.00221531 -0.014946 0.000116 0 -0.011753 0 2650 
736 1 -0.00809614 -0.00146475 -0.0144218 0.000116 -0.0307431 -0.0170391 0.0144389 2650 
1763 1 -0.00414319 -0.00147839 -0.0147047 0.000656 0.0110508 0.03864 0.047043 2650 
3576 1 -0.00158454 -0.00140687 -0.0149339 0.000116 0.0561059 0.00120064 -0.0311085 2650 
509 1 -0.00775717 -0.000688082 -0.0143946 0.000116 -0.00480979 -0.0076817 0.0108723 2650 
2666 1 -0.00716419 0.000723759 -0.014228 0.000423 -0.120334 0.137813 -0.0175693 2650 
857 1 -0.00642157 0.00305763 -0.014823 0.000116 -0.0623021 0.0193526 0.00200378 2650 
3787 1 -0.00680329 0.00400967 -0.0142177 0.000116 -0.0024271 -0.00223267 -0.0195234 2650 
3364 1 -0.006752 0.0082438 -0.0143193 0.000116 -0.00179506 0.0163753 -0.0232219 2650 
581 1 -0.00560714 0.00808598 -0.0144837 0.000423 0.000441693 0.00100922 0.00165067 2650 
1827 1 -0.00372307 0.00812728 -0.0143087 0.000116 0.0445821 -0.0304485 -0.00868089 2650 
233 1 -0.00358011 0.00890839 -0.0147008 0.000423 0.00841442 -0.00267664 0.00454736 2650 
86 1 -0.00468565 0.0106899 -0.0149482 0.000116 -0.0196067 0.0126222 0.000798653 2650 
2969 1 -0.00253342 0.0107224 -0.0149361 0.000656 -0.00667616 0.014076 0.00443217 2650 
1228 1 -0.00229035 0.013179 -0.0147963 0.000423 -0.0165199 0.0339339 0.00467854 2650 
3838 1 -0.00528191 0.013673 -0.0147436 0.000656 0.0059045 0.0308137 -0.0288407 2650 
3644 1 -0.00126203 0.0137816 -0.0149438 0.000423 -0.00424564 0.0328325 0.0133159 2650 
2924 1 -0.00828945 0.0162104 -0.0145016 0.000116 -0.0500795 0.0331408 0.0243033 2650 
1776 1 -0.00497788 0.0228704 -0.0143744 0.000423 -0.10193 0.150061 -0.136021 2650 
4234 1 -0.00489261 0.0331278 -0.0149407 0.000116 0.00512064 0.0508026 0.0366661 2650 
1195 1 -0.00403628 0.033672 -0.014715 0.000116 0.0557766 0.0782116 -0.0138054 2650 
2614 1 -0.000579928 0.0535796 -0.0145371 0.000116 -0.0792369 -0.0730102 0.0417576 2650 
2863 1 -0.000964398 0.0549317 -0.014737 0.000656 0.0828395 0.112062 0.0238951 2650 
1558 1 -0.0144236 -0.006979 -0.0136148 0.000423 -1.39709 -1.44879 -1.29391 2650 
3011 1 -0.000753574 -0.0019905 -0.0141634 0.000423 0.0180353 -0.0317081 -0.0392676 2650 
1991 1 -0.00810789 0.000213518 -0.0139475 0.000656 -0.0192457 -0.00223252 0.00858771 2650 
2609 1 -0.00833575 0.00096058 -0.0136265 0.000116 -0.00705034 0.0126459 0.00789545 2650 
2922 1 -0.007961 0.00133387 -0.0134288 0.000116 -0.00925852 -0.000802711 0.00675368 2650 