ITEM: TIMESTEP
11856204
ITEM: NUMBER OF ATOMS
4302
ITEM: BOX BOUNDS ff ff ff
-0.15 0.15
-0.15 0.06
-0.15 0.15
ITEM: ATOMS id type x y z radius vx vy vz density 
3613 1 -0.149978 -0.0556796 -0.102973 4.2e-05 -8.72419 -1.98078 -1.8903 2650 
2620 1 -0.0848931 -0.0204642 -0.028964 0.000116 -10.709 0.0172135 5.47101 2650 
3079 1 -0.0117758 -0.0492974 -0.0673255 0.000656 -8.54632 -0.0389994 1.50849 2650 
3409 1 -0.0164174 -0.0525398 -0.066346 0.000656 -8.3044 -0.00429279 2.06231 2650 
482 1 -0.0306586 -0.0606802 -0.0613428 0.000423 -6.98562 -0.0217507 3.49626 2650 
3038 1 -0.0496241 -0.0545323 -0.0477754 0.000116 -4.27673 -0.0167429 4.42312 2650 
2857 1 -0.0672914 -0.046704 -0.0119207 0.000656 -1.41249 -0.0277491 8.17314 2650 
2201 1 -0.0681462 -0.0534382 0.0052234 0.000656 0.640054 -0.0199259 8.56417 2650 
4009 1 -0.0668203 -0.0551209 0.0167356 0.000116 1.51438 0.310489 6.10659 2650 
3519 1 -0.0654032 -0.0462453 0.0198437 0.000656 2.56633 -0.047616 8.42173 2650 
3957 1 -0.0579024 -0.0553125 0.0362977 0.000656 4.58159 -0.0123726 7.24872 2650 
3753 1 -0.057527 -0.0540328 0.0373265 0.000423 4.44258 -0.321816 6.86026 2650 
3845 1 -0.0547541 -0.0454725 0.0409055 0.000656 5.23861 0.0229611 7.0178 2650 
1135 1 -0.0420902 -0.0489182 0.0541423 0.000423 6.11664 0.0309408 4.68488 2650 
1856 1 -0.0382603 -0.0570142 0.0572816 0.000116 4.70911 -0.100383 3.15739 2650 
947 1 -0.0126166 -0.0511088 0.0677187 0.000116 7.15335 0.648369 1.32823 2650 
2132 1 -0.0109349 -0.0456152 0.0676992 0.000423 8.47022 0.309698 1.37467 2650 
4376 1 -0.0179028 -0.0403154 -0.0797967 4.2e-05 -10.2579 0.436589 -3.9366 2650 
2386 1 -0.00371504 -0.0236671 -0.0687836 0.000116 -8.13263 -0.488966 0.443198 2650 
2928 1 -0.000869414 -0.0203529 -0.0688786 0.000116 -6.86845 -0.858943 0.0897303 2650 
3260 1 -0.00471893 -0.0194229 -0.0687223 0.000116 -8.41097 0.150757 0.580403 2650 
1718 1 -0.0042438 -0.0065822 -0.0687532 0.000116 -3.27995 -0.127279 0.180027 2650 
2151 1 -0.00472653 -0.00603075 -0.0687223 0.000116 -6.79752 -0.0432145 0.459021 2650 
1646 1 -0.00153979 -0.00613494 -0.0689409 4.2e-05 -5.57777 -0.241196 0.118291 2650 
759 1 -0.00478876 -0.000115996 -0.0687174 0.000116 -5.84773 -0.00082984 0.401946 2650 
1410 1 -0.00758661 -0.0423095 -0.0684646 0.000116 -2.32885 -1.22864 0.231171 2650 
3181 1 -0.0088442 -0.0400931 -0.0683883 4.2e-05 -8.14739 -1.74008 1.05117 2650 
1593 1 -0.00812518 -0.0371498 -0.0680949 0.000423 -7.5288 -0.155428 0.893322 2650 
355 1 -0.0017166 -0.0354071 -0.068557 0.000423 -9.2419 -0.123872 0.227436 2650 
2117 1 -0.00951426 -0.0345645 -0.0679151 0.000423 -7.94175 -0.0983981 1.1153 2650 
132 1 -0.00964676 -0.0327089 -0.0678965 0.000423 -7.27619 -0.114721 1.02817 2650 
2042 1 -0.00943219 -0.0322653 -0.0682362 0.000116 -8.09295 -0.46672 1.12925 2650 
3605 1 -0.00685467 -0.0310345 -0.0685429 0.000116 -7.76135 -0.0780911 0.776049 2650 
2298 1 -0.00802164 -0.029247 -0.0684161 0.000116 -7.85116 0.333685 0.925993 2650 
3276 1 -0.0086216 -0.0278743 -0.0683428 0.000116 -7.72683 0.00755725 0.975711 2650 
2001 1 -0.00800686 -0.0276788 -0.0681094 0.000423 -7.87662 0.184745 0.928173 2650 
159 1 -0.00690507 -0.0274195 -0.0682296 0.000423 -7.87034 0.109107 0.783873 2650 
4056 1 -0.00565775 -0.027429 -0.068112 0.000656 -7.85471 -0.00747955 0.633335 2650 
4069 1 -0.00720813 -0.0253992 -0.0681987 0.000423 -7.86562 0.0901653 0.83416 2650 
4016 1 -0.0109324 -0.0250492 -0.0680111 0.000116 -7.09709 0.0122105 1.14045 2650 
1175 1 -0.00853162 -0.0232603 -0.0683534 0.000116 -6.47977 -0.660536 0.814339 2650 
758 1 -0.00819293 -0.0214254 -0.0683947 0.000116 -8.24618 0.0673771 0.987536 2650 
4007 1 -0.00803846 -0.0215985 -0.0684132 0.000116 -8.24389 0.0709117 0.964071 2650 
1458 1 -0.00746205 -0.0213686 -0.068171 0.000423 -8.03332 0.00072974 0.884508 2650 
2672 1 -0.00650036 -0.0219724 -0.0682689 0.000423 -8.02913 -0.197211 0.786769 2650 
3963 1 -0.00579513 -0.0201294 -0.0683331 0.000423 -8.91614 0.0251414 0.772472 2650 
4139 1 -0.00845442 -0.0191618 -0.0683632 0.000116 -6.68846 -0.246725 0.82206 2650 
3636 1 -0.00793192 -0.0196825 -0.068118 0.000423 -8.44089 0.168362 0.982346 2650 
229 1 -0.00295792 -0.0181816 -0.0682826 0.000656 -8.00354 -0.0304441 0.381715 2650 
1455 1 -0.000158765 -0.0171037 -0.0685778 0.000423 -7.83159 0.0369569 0.0131245 2650 
4226 1 -0.0043927 -0.0152631 -0.0685124 0.000116 -3.18765 -0.690224 0.736122 2650 
3943 1 -0.0107083 -0.00908759 -0.0681162 4.2e-05 -8.01427 -0.461463 1.26031 2650 
3901 1 -0.00709475 -0.00857986 -0.0685186 0.000116 -5.65536 -0.295475 0.601435 2650 
575 1 -0.0106561 -0.0371792 -0.0677452 0.000423 -7.65921 -0.239172 1.18788 2650 
4320 1 -0.011264 -0.0350251 -0.0676474 0.000423 -7.75898 0.0626693 1.28413 2650 
1990 1 -0.0122528 -0.033054 -0.0672404 0.000656 -7.94213 0.110332 1.44723 2650 
1619 1 -0.0116603 -0.0314887 -0.0678906 0.000116 -7.45723 0.542702 1.27964 2650 
1323 1 -0.00866202 -0.0312641 -0.067795 0.000656 -7.96953 -0.00566469 0.996265 2650 
3881 1 -0.0113103 -0.0296955 -0.0676398 0.000423 -7.61609 0.0481509 1.25989 2650 
1304 1 -0.0126688 -0.0290716 -0.0677095 0.000116 -7.59783 0.210503 1.41955 2650 
2819 1 -0.0117229 -0.0288979 -0.0678798 0.000116 -7.86067 0.216875 1.35227 2650 
1447 1 -0.0108143 -0.0289987 -0.067721 0.000423 -7.77053 0.2033 1.25158 2650 
390 1 -0.0119645 -0.0227138 -0.0678368 0.000116 -7.64717 0.441262 1.34385 2650 
1081 1 -0.0142795 -0.0191161 -0.0673877 0.000116 -2.92498 -0.579975 0.616386 2650 
3284 1 -0.00843144 -0.0042879 -0.0677766 4.2e-05 -1.308 -0.110483 -10.5144 2650 
2765 1 -0.014548 -0.0397962 -0.0670174 0.000423 -7.32678 -0.150554 1.59535 2650 
379 1 -0.0152856 -0.0394019 -0.0668523 0.000423 -7.2975 -0.111638 1.67114 2650 
443 1 -0.0164469 -0.0359904 -0.0663386 0.000656 -7.25264 -0.0799544 1.78086 2650 
295 1 -0.0176985 -0.0346383 -0.0665714 0.000116 -7.38148 -0.31655 1.96347 2650 
3018 1 -0.0169841 -0.0319705 -0.0664413 0.000423 -7.32517 0.0753394 1.87458 2650 
4204 1 -0.0142462 -0.0251522 -0.0670816 0.000423 -7.73969 0.146127 1.64896 2650 
3339 1 -0.0146487 -0.0236897 -0.0669951 0.000423 -7.77142 0.148237 1.6794 2650 
1757 1 -0.0175619 -0.0231549 -0.066684 4.2e-05 -7.38231 0.903774 1.94313 2650 
4149 1 -0.0169682 -0.0128965 -0.0667294 0.000116 -5.9802 -0.00515388 1.50766 2650 
1475 1 -0.0197546 -0.0374319 -0.0656699 0.000423 -6.84532 -0.188485 2.06948 2650 
4173 1 -0.017017 -0.0340909 -0.0661946 0.000656 -7.2177 -0.080451 1.87172 2650 
4133 1 -0.0197159 -0.0311015 -0.0660008 0.000116 -8.01907 -0.419761 2.39565 2650 
4094 1 -0.0176776 -0.0234376 -0.0662602 0.000423 -7.23252 0.180883 1.93032 2650 
4244 1 -0.0186403 -0.0146649 -0.0659931 0.000116 -1.85082 -0.794221 3.7757 2650 
1454 1 -0.0174524 -0.0130543 -0.0662878 0.000423 -5.96646 -0.0363381 1.58376 2650 
1602 1 -0.0204673 -0.00979474 -0.065773 0.000116 -5.64469 0.0111633 1.7728 2650 
3232 1 -0.0202274 -0.00739023 -0.0655266 0.000423 -5.98524 0.527034 1.86369 2650 
426 1 -0.0203256 -0.00675881 -0.0657623 0.000116 -8.23322 2.89316 2.8856 2650 
2691 1 -0.0221445 -0.0303939 -0.0648851 0.000423 -7.1752 -0.0680476 2.46645 2650 
2395 1 -0.0218846 -0.0235123 -0.0653102 0.000116 -7.87211 -0.94631 2.64568 2650 
4098 1 -0.0205959 -0.016148 -0.0654124 0.000423 -7.19595 -0.144169 2.2528 2650 
672 1 -0.0221733 -0.0408721 -0.0646502 0.000656 -8.28861 0.0248952 2.82133 2650 
1945 1 -0.0247385 -0.0397406 -0.0642882 0.000116 -9.14529 0.34757 3.51978 2650 
1185 1 -0.0250457 -0.0341292 -0.0641575 0.000116 -8.26744 0.511252 3.21787 2650 
3649 1 -0.0247061 -0.0322992 -0.0639604 0.000423 -7.39492 -0.127396 2.85361 2650 
681 1 -0.023325 -0.0264606 -0.0644638 0.000423 -7.12134 0.0562587 2.65091 2650 
2895 1 -0.0246478 -0.0229926 -0.0639956 0.000423 -7.10911 -0.0788412 2.75369 2650 
1218 1 -0.0226863 -0.0213194 -0.0644718 0.000656 -7.02683 -0.0241499 2.45275 2650 
2806 1 -0.0242244 -0.0152779 -0.0644839 0.000116 -6.26389 0.0622204 2.35072 2650 
656 1 -0.0246015 -0.00837001 -0.0644204 4.2e-05 -6.72003 0.840761 2.55337 2650 
908 1 -0.0266845 -0.0285061 -0.0631677 0.000423 -7.0555 -0.0432932 3.01537 2650 
2591 1 -0.0266113 -0.0138316 -0.0634644 0.000116 -4.21646 -2.53998 2.37194 2650 
2336 1 -0.0266615 -0.0132684 -0.0631836 0.000423 -3.24337 -0.348214 1.36913 2650 
1453 1 -0.0278808 -0.0268566 -0.0626533 0.000423 -7.38664 -0.0657185 3.31713 2650 
1436 1 -0.026785 -0.0268465 -0.0628773 0.000656 -7.32761 -0.0563868 3.09557 2650 
1968 1 -0.0290627 -0.0267343 -0.0624529 0.000116 -5.32894 -0.654644 2.54074 2650 
341 1 -0.0271765 -0.0256063 -0.0627095 0.000656 -7.26455 -0.0260387 3.11634 2650 
3782 1 -0.0275039 -0.0244857 -0.0628203 0.000423 -6.95389 -0.0720685 3.05928 2650 
2909 1 -0.0276673 -0.0234435 -0.0627482 0.000423 -7.20277 0.0687644 3.18321 2650 
2964 1 -0.0282717 -0.00403461 -0.062896 4.2e-05 -3.84043 2.3928 1.71639 2650 
2421 1 -0.0285956 -0.0313775 -0.0620751 0.000656 -7.05206 -0.00514212 3.23772 2650 
50 1 -0.0291057 -0.0282304 -0.0620919 0.000423 -6.99914 0.0197377 3.27465 2650 
843 1 -0.0304845 -0.0244906 -0.0617711 0.000116 -6.42372 0.727452 3.16755 2650 
2167 1 -0.0298666 -0.0230863 -0.062072 0.000116 -7.01946 -0.447274 3.37658 2650 
2103 1 -0.0296587 -0.0220617 -0.0618326 0.000423 -6.82312 -0.115951 3.28822 2650 
2203 1 -0.0286278 -0.0217383 -0.0620617 0.000656 -6.85545 -0.00679781 3.19448 2650 
2340 1 -0.030134 -0.0190147 -0.0616026 0.000423 -7.10564 0.351848 3.4823 2650 
3966 1 -0.029263 -0.0175462 -0.062021 0.000423 -6.81747 0.0036893 3.20915 2650 
3679 1 -0.0294718 -0.0152076 -0.0622613 0.000116 -6.9968 0.0871765 3.31596 2650 
3864 1 -0.0287412 -0.0152057 -0.0622651 0.000423 -6.96026 0.0506822 3.19596 2650 
2846 1 -0.0296032 -0.0139785 -0.0622805 4.2e-05 -5.20786 -0.04465 2.4756 2650 
1012 1 -0.0305305 -0.0205996 -0.0614081 0.000423 -7.06784 0.105201 3.53188 2650 
299 1 -0.0310699 -0.000506056 -0.0614786 0.000116 -6.33208 -0.0413923 3.20158 2650 
3135 1 -0.0331562 -0.028469 -0.0603803 0.000116 -6.92514 0.0761994 3.79251 2650 
2574 1 -0.0329624 -0.0280272 -0.0601379 0.000423 -6.90025 0.0796691 3.77736 2650 
1433 1 -0.031636 -0.0283594 -0.0605829 0.000656 -6.94739 -0.0256464 3.6326 2650 
2254 1 -0.0318202 -0.0272405 -0.0607487 0.000423 -6.88105 -0.007015 3.59714 2650 
38 1 -0.0342898 -0.0337686 -0.0593904 0.000423 -6.04973 0.164365 3.50061 2650 
437 1 -0.0351911 -0.00678062 -0.0593028 4.2e-05 -5.97484 0.399753 3.5392 2650 
1829 1 -0.0362851 -0.0180946 -0.0585521 0.000116 -6.92913 0.384746 4.29438 2650 
4148 1 -0.0359231 -0.00297751 -0.0587751 0.000116 -4.79101 -0.111343 2.91724 2650 
977 1 -0.0375142 -0.0163277 -0.0577724 0.000116 -5.08345 0.238013 3.29395 2650 
4150 1 -0.0365853 -0.0124471 -0.0583659 0.000116 -5.32174 0.96527 3.31337 2650 
1407 1 -0.0382475 -0.0258334 -0.0572896 0.000116 -6.03459 -0.80919 4.03085 2650 
394 1 -0.0385864 -0.0237831 -0.057062 0.000116 -6.09493 0.52931 4.12002 2650 
2578 1 -0.0391346 -0.0415952 -0.0563159 0.000423 -7.41897 -0.113713 5.15042 2650 
1616 1 -0.0389267 -0.017124 -0.0568303 0.000116 -8.26282 0.74884 5.65992 2650 
81 1 -0.0392363 -0.00194599 -0.0566172 0.000116 -3.87736 0.0161673 2.67039 2650 
1042 1 -0.0397316 -0.0420234 -0.0558964 0.000423 -7.30043 -0.21117 5.18978 2650 
2 1 -0.0426122 -0.0279526 -0.0534354 0.000656 -6.43011 0.0577937 5.10451 2650 
2460 1 -0.0434719 -0.0128588 -0.0530394 0.000423 -5.23088 0.0293287 4.29617 2650 
2038 1 -0.0440987 -0.0125864 -0.0529176 0.000116 -5.18313 0.157882 4.3238 2650 
1601 1 -0.0450102 -0.0213252 -0.0521449 0.000116 -5.36203 -0.375381 4.63143 2650 
3426 1 -0.045455 -0.0303764 -0.0513504 0.000423 -5.40965 0.0136185 4.77542 2650 
2612 1 -0.0467075 -0.0170849 -0.0506303 0.000116 -5.36826 0.336968 4.93602 2650 
1183 1 -0.0468016 -0.0148333 -0.0505437 0.000116 -4.74833 -0.00779144 4.38196 2650 
3233 1 -0.0463664 -0.0114779 -0.0505288 0.000423 -2.47884 -0.291239 2.26245 2650 
2350 1 -0.0464976 -0.0309092 -0.0504089 0.000423 -5.48518 0.167937 5.08104 2650 
1387 1 -0.0524838 -0.0419104 -0.0446144 0.000116 -5.60352 -0.0437677 6.60597 2650 
1213 1 -0.0516917 -0.0263092 -0.0447094 0.000656 -5.13857 -0.0431614 5.94463 2650 
1336 1 -0.0521431 -0.0194029 -0.0445428 0.000423 -4.27448 -0.13179 5.00846 2650 
3516 1 -0.0526893 -0.0389392 -0.0435323 0.000656 -5.50366 -0.0767796 6.65196 2650 
849 1 -0.0531653 -0.0127902 -0.0437971 0.000116 -3.41603 -0.0935313 4.21827 2650 
2165 1 -0.0535759 -0.0431155 -0.0432964 0.000116 -4.65561 -0.332117 5.77552 2650 
2827 1 -0.0536987 -0.00552442 -0.043143 0.000116 -3.36657 0.0920088 4.15022 2650 
816 1 -0.0541979 -0.0438631 -0.0420148 0.000423 -4.66924 0.340632 6.01626 2650 
1481 1 -0.0537976 -0.0387044 -0.042529 0.000423 -4.65552 -0.156417 5.90044 2650 
163 1 -0.0539268 -0.0320807 -0.0423459 0.000423 -4.67876 -0.0839012 5.96536 2650 
902 1 -0.0542474 -0.0305788 -0.0419462 0.000423 -4.50134 -0.125079 5.85685 2650 
3701 1 -0.05423 -0.0184846 -0.0424747 0.000116 -4.01949 -0.0679152 5.10469 2650 
3566 1 -0.0551463 -0.0250028 -0.0412738 0.000116 -4.39131 0.765446 5.82396 2650 
171 1 -0.0560685 -0.00275751 -0.0400164 0.000116 -3.66815 -0.117752 5.22554 2650 
2679 1 -0.0565766 -0.0347794 -0.0387307 0.000423 -4.4321 -0.0159077 6.5696 2650 
114 1 -0.0557754 -0.0349125 -0.0394591 0.000656 -4.55245 -0.0213813 6.4475 2650 
835 1 -0.0569793 -0.00932471 -0.0386855 0.000116 -3.98774 -0.641696 6.01373 2650 
3168 1 -0.0578562 -0.0129585 -0.037385 0.000116 -3.53187 -0.415604 5.46064 2650 
2436 1 -0.0577501 -0.0363734 -0.0369853 0.000423 -4.09447 0.0699694 6.40991 2650 
2788 1 -0.0577854 -0.00368097 -0.0369297 0.000423 -3.93473 -0.0211074 6.22313 2650 
1207 1 -0.0589643 -0.005606 -0.035754 4.2e-05 -3.3304 0.222461 5.47552 2650 
4164 1 -0.0589708 -0.00109082 -0.0357435 4.2e-05 -3.12285 0.0987568 5.15642 2650 
2100 1 -0.0584209 -0.0177963 -0.0354699 0.000656 -3.60455 -0.0489057 5.95109 2650 
222 1 -0.0292728 -0.0178267 -0.0347956 0.000656 -4.26824 -1.30927 -5.11898 2650 
138 1 -0.0590043 -0.0119876 -0.0349488 0.000423 -3.40547 -0.0197601 5.71736 2650 
1781 1 -0.0592412 -0.0408165 -0.0345469 0.000423 -4.12936 -0.00684 7.09327 2650 
3375 1 -0.0605373 -0.00988009 -0.032868 0.000116 -3.20656 0.100944 5.88851 2650 
2196 1 -0.0613879 -0.0141804 -0.0314125 4.2e-05 -1.56976 -0.180597 3.05645 2650 
2074 1 -0.0618181 -0.00240716 -0.0303894 0.000116 -2.38105 0.031031 4.81908 2650 
453 1 -0.0620046 -0.026917 -0.0292997 0.000423 -3.1781 0.448651 6.70392 2650 
1863 1 -0.0622493 -0.0039633 -0.0296686 4.2e-05 -2.34393 0.176825 4.90089 2650 
877 1 -0.0626322 -0.0243638 -0.0288514 4.2e-05 -2.94364 -0.539971 6.40822 2650 
1994 1 -0.0624041 -0.0191695 -0.0284371 0.000423 -2.87673 -0.0700944 6.33519 2650 
3390 1 -0.0633672 -0.00562183 -0.0270108 0.000116 -2.46652 0.201392 5.79111 2650 
3308 1 -0.063967 -0.0365029 -0.0247169 0.000423 -2.98469 0.0924429 7.7434 2650 
1946 1 -0.0642575 -0.00910966 -0.0248085 0.000116 -2.28018 0.189669 5.92591 2650 
2982 1 -0.064128 -0.018495 -0.0242997 0.000423 -2.44629 0.302395 6.57422 2650 
2557 1 -0.0646385 -0.0351559 -0.0229061 0.000423 -2.40484 0.0213353 6.86625 2650 
1356 1 -0.064756 -0.0224177 -0.0225743 0.000423 -2.83304 -0.0318892 8.18775 2650 
4240 1 -0.0651368 -0.0145673 -0.0224014 0.000116 -1.65748 -0.439002 4.83672 2650 
3031 1 -0.0659046 -0.00457807 -0.020023 0.000116 -1.04472 -0.00464268 3.25165 2650 
2601 1 -0.0661275 -0.0395595 -0.0192807 0.000116 -2.52156 1.41743 8.61279 2650 
3095 1 -0.0657828 -0.0238865 -0.019353 0.000423 -2.46281 -0.00653798 8.40789 2650 
2966 1 -0.0658289 -0.0312942 -0.0182702 0.000656 -2.09108 -0.0355553 7.51747 2650 
2501 1 -0.0664996 -0.0173804 -0.0179404 0.000116 -1.89219 0.434018 6.90868 2650 
3011 1 -0.000244716 -0.00396042 -0.0173736 0.000423 -0.0972062 -0.208256 -0.880236 2650 
4235 1 -0.0664765 -0.00296007 -0.0180287 0.000116 -1.36056 -0.0034301 4.8212 2650 
4023 1 -0.0668378 -0.00395367 -0.0166487 0.000116 -1.37286 0.11082 5.75638 2650 
648 1 -0.000171266 -0.00114004 -0.0167815 0.000116 -0.0223048 -0.0463898 -0.00146523 2650 
606 1 -0.000183 0.000870027 -0.016592 0.000116 0 -0.011753 0 2650 
3503 1 -0.000429445 0.00308104 -0.0166005 4.2e-05 -0.0351311 0.0114577 -0.000362163 2650 
999 1 -0.000239227 -2.19058e-05 -0.0162368 0.000656 -0.00841998 -0.0161411 -0.0218233 2650 
2301 1 -0.0043807 0.0031438 -0.0158908 4.2e-05 -0.00116259 -0.0070103 0.00459775 2650 
4227 1 -0.000183282 0.00299019 -0.0162202 0.000116 0.00593372 -0.017543 0.0130313 2650 
2013 1 -0.00305514 0.00317933 -0.0158114 0.000423 -0.00154235 0.00221798 0.00156406 2650 
2283 1 -0.0035335 0.00483768 -0.0163512 0.000116 -0.00010552 0.00956354 0.000789399 2650 
2520 1 -9.32252e-05 0.00491152 -0.0163621 4.2e-05 0.00318265 0.000380138 0.00682554 2650 
3934 1 -0.001977 0.00563203 -0.016218 0.000116 0 -0.011753 0 2650 
978 1 -0.00154156 0.00613546 -0.0164807 0.000116 0.0180122 -0.00353228 -0.00159853 2650 
3365 1 -0.00119956 0.0067959 -0.0158748 0.000116 0.015804 0.0241832 0.0212134 2650 
3051 1 -0.002344 0.00916556 -0.0164823 0.000116 -0.0677691 -0.171446 -0.0100126 2650 
2726 1 -0.000623141 0.00936947 -0.016526 0.000116 0.0026577 0.00672332 0.0197797 2650 
3150 1 -0.00270796 0.00986002 -0.0165313 0.000116 -0.00853688 -0.00507509 0.0147387 2650 
938 1 -0.00156453 0.00994823 -0.0162199 0.000116 -0.00119823 0.000558801 -0.00633771 2650 
302 1 -0.00278646 0.0109464 -0.0162713 0.000116 -0.0347922 0.0241041 0.0152166 2650 
1483 1 -0.00050396 0.0107848 -0.0163386 0.000423 -0.000431738 0.0094693 0.00416488 2650 
3007 1 -0.00316031 0.0118603 -0.0160811 0.000423 -0.00754521 0.0118776 -0.00214285 2650 
371 1 -0.000715536 0.0122111 -0.0164034 0.000423 -0.00486135 0.00835155 -0.00501272 2650 
188 1 -0.00359598 0.0142065 -0.0160065 0.000116 -0.0148612 0.0228045 0.00418427 2650 
1785 1 -0.000122224 0.0283979 -0.0164794 0.000423 -0.0101949 0.0402746 0.0313912 2650 
1717 1 -0.0039604 0.0330028 -0.0160308 0.000116 0.0090039 0.0753863 0.0163861 2650 
1248 1 -0.000617577 0.0495091 -0.0164971 0.000423 -0.0646233 -0.0560258 -0.01363 2650 
3352 1 -0.00353692 0.0542137 -0.0163094 0.000116 -0.754454 0.00484672 0.142206 2650 
3015 1 -0.0668007 -0.0216671 -0.0155101 0.000423 -1.6898 -0.0821191 7.33186 2650 
1730 1 -0.0672176 -0.0114909 -0.0150595 0.000116 -1.29759 -0.723518 5.73345 2650 
2900 1 -0.0667723 -0.0109648 -0.0156299 0.000423 -1.4188 -0.334026 6.15572 2650 
30 1 -0.00267118 -0.00296506 -0.0152178 0.000423 -0.0139928 -0.0214008 0.00726417 2650 
2399 1 -0.002418 0.00108403 -0.015541 0.000116 0 -0.011753 0 2650 
3787 1 -0.00691536 0.00390658 -0.0151192 0.000116 -0.0024271 -0.00223267 -0.0195234 2650 
3637 1 -0.00563632 0.00461848 -0.015124 0.000423 -0.00704251 0.0124689 0.006236 2650 
1679 1 -0.00442829 0.00548989 -0.0156764 0.000423 -0.00453172 0.0157125 0.00260684 2650 
889 1 -0.000613739 0.00507732 -0.0152562 0.000656 0.0221019 0.0158351 0.0220207 2650 
3830 1 -0.006879 0.00718403 -0.015411 4.2e-05 0 -0.011753 0 2650 
2438 1 -0.00637082 0.00723784 -0.0151894 0.000423 -0.00468347 -0.000292455 -0.00123863 2650 
3364 1 -0.00683489 0.00899989 -0.0153915 0.000116 -0.00179506 0.0163753 -0.0232219 2650 
86 1 -0.00542463 0.0111099 -0.0150072 0.000116 -0.00883451 0.00207244 -0.00541251 2650 
2793 1 -0.00079701 0.0139968 -0.0151707 0.000423 0.0048622 0.0258018 0.00120785 2650 
3838 1 -0.00479087 0.0149903 -0.0152766 0.000656 0.0157867 0.0260395 0.00729433 2650 
70 1 -0.00118508 0.0143085 -0.0155144 0.000116 0.01444 0.0459691 -0.0160324 2650 
2182 1 -0.00143283 0.015041 -0.0155841 0.000116 0.00266263 0.0360122 0.0211071 2650 
2713 1 -0.000692165 0.0169479 -0.015746 0.000116 0.00037122 0.035974 0.00535071 2650 
2466 1 -0.00108357 0.0237037 -0.015428 0.000423 0.0618857 0.0331724 -0.00268308 2650 
1195 1 -0.00146095 0.0372832 -0.0153524 0.000116 0.0557766 0.0782116 -0.0138054 2650 
2264 1 -0.00216205 0.0546677 -0.0157848 0.000116 -0.0637592 0.11185 0.0253368 2650 
3211 1 -0.00457519 0.0561508 -0.0152994 0.000423 0.104724 -0.0438727 -0.0635138 2650 
274 1 -0.0669581 -0.0107948 -0.0148168 0.000423 -1.3769 -0.476124 6.21005 2650 
1053 1 -0.007469 -0.00275797 -0.014946 0.000116 0 -0.011753 0 2650 
1611 1 -0.000223369 0.00362527 -0.0144186 0.000116 0.0444256 -0.019621 0.0278665 2650 
1192 1 -0.00708282 0.00681828 -0.0144493 0.000116 0.00510585 0.0133553 0.012363 2650 
1827 1 -0.00166461 0.0067214 -0.0147095 0.000116 0.0445821 -0.0304485 -0.00868089 2650 
581 1 -0.00558674 0.00813258 -0.0144075 0.000423 0.000441693 0.00100922 0.00165067 2650 
842 1 -0.00818409 0.00885024 -0.0142968 0.000116 -0.0132472 -0.000581938 -0.0143857 2650 
233 1 -0.00319159 0.0087848 -0.0144908 0.000423 0.00841442 -0.00267664 0.00454736 2650 
2781 1 -0.00546706 0.0116067 -0.0145074 0.000423 0.00955411 0.0107278 0.0121748 2650 
2969 1 -0.00284168 0.0113723 -0.0147315 0.000656 -0.00667616 0.014076 0.00443217 2650 
1802 1 -0.00311095 0.0123837 -0.0143487 0.000423 0.00500259 -0.000364755 -0.0111755 2650 
2453 1 -0.00588517 0.0129985 -0.0144647 0.000423 0.00287214 0.0261989 -0.0126472 2650 
2191 1 -0.00252947 0.0135463 -0.0146434 4.2e-05 -0.00764734 0.00298638 -0.00836536 2650 
2345 1 -0.00213176 0.0140722 -0.014521 0.000423 -0.0175833 0.0131789 -0.0282092 2650 
1228 1 -0.00305359 0.014746 -0.0145811 0.000423 -0.0165339 0.0339414 0.00465399 2650 
3644 1 -0.0016116 0.0154235 -0.0145269 0.000423 -0.0118967 0.0391079 0.0034562 2650 
3471 1 -0.00726132 0.0158907 -0.0142141 0.000116 0.00654915 0.0415659 -0.0136084 2650 
2585 1 -0.00248868 0.0297698 -0.0147755 0.000116 -0.0221426 0.0759057 0.0070692 2650 
1654 1 -0.00677956 0.0559033 -0.0147048 0.000656 0.102592 0.082001 -0.0771439 2650 
807 1 -0.0671204 -0.018447 -0.0140642 0.000423 -1.38556 -0.0563968 6.65855 2650 
1186 1 -0.067505 -0.00996916 -0.0137143 0.000116 -1.12793 -0.276179 5.60552 2650 
203 1 -0.0674444 -0.00664836 -0.0140078 0.000116 -1.13947 0.0491212 5.50145 2650 
736 1 -0.00951562 -0.00225149 -0.0137551 0.000116 -0.0307431 -0.0170391 0.0144389 2650 
509 1 -0.00797925 -0.00104276 -0.0138926 0.000116 -0.00480979 -0.0076817 0.0108723 2650 
1991 1 -0.00895344 0.00011067 -0.0135017 0.000656 -0.0163562 -0.00220394 0.0118277 2650 
3530 1 -0.00228154 0.00268468 -0.0138896 0.000423 -0.0590629 0.185452 -0.11628 2650 
2913 1 -0.0100972 0.00370925 -0.013431 0.000116 -0.0114455 0.0352413 0.0171843 2650 
857 1 -0.00866144 0.0039213 -0.0139778 0.000116 -0.0319262 0.0179271 0.0379105 2650 
3289 1 -0.0049744 0.00332875 -0.0134814 4.2e-05 0.00210041 -0.0118729 -0.0396069 2650 
220 1 -0.00324816 0.00388162 -0.0135327 4.2e-05 0.00197382 0.00663681 0.00671825 2650 
2666 1 -0.00742715 0.00475416 -0.0137658 0.000423 0.0107963 0.0809594 0.0204513 2650 
1288 1 -0.002467 0.00481303 -0.014044 0.000116 0 -0.011753 0 2650 
3515 1 -0.00866223 0.00617787 -0.0134384 0.000656 -0.00454215 -0.00749919 0.00616721 2650 
2483 1 -0.00546593 0.00703682 -0.0139808 0.000116 0.00771374 -0.0189039 -0.0218467 2650 
1618 1 -0.00944738 0.00760863 -0.0138686 0.000116 -0.00572111 -0.00394584 0.0040493 2650 
1769 1 -0.00878693 0.00767257 -0.0134527 0.000656 -0.00286567 -0.00827936 0.00732906 2650 
1409 1 -0.000593431 0.00855992 -0.0139487 0.000116 -0.00338114 -0.0124825 -0.00177889 2650 
4190 1 -0.00946978 0.00955746 -0.0135097 0.000423 -0.00764182 0.00444848 0.00482856 2650 
793 1 -0.000147015 0.0095544 -0.014129 0.000423 -0.00384688 0.00642406 -0.0108379 2650 
289 1 -0.00405539 0.0108005 -0.0134599 0.000116 -0.0130397 0.0193908 0.0119694 2650 
128 1 -0.000984803 0.0147628 -0.0141726 0.000423 -0.00458662 0.0273274 -0.00640456 2650 
3145 1 -0.00890878 0.0155838 -0.0138035 0.000116 0.00413084 0.0258652 0.0123186 2650 
4321 1 -0.000499883 0.0158229 -0.0142046 0.000423 -0.033158 0.0125251 -0.00503274 2650 
526 1 -0.00365033 0.0196927 -0.0134902 0.000116 -0.0196465 0.0272628 -0.0386948 2650 
93 1 -0.00941235 0.0230394 -0.0140072 0.000116 -0.0841323 0.086463 0.0577882 2650 
866 1 -0.00997074 0.0314333 -0.0135663 0.000116 0.0399258 0.0589469 -0.00794136 2650 
2359 1 -0.000159955 0.0555828 -0.0134787 0.000423 -0.0737863 -0.0388432 0.00820178 2650 
1604 1 -0.0677119 -0.000116062 -0.0126534 0.000116 -1.44751 0.00156714 7.72234 2650 
623 1 -0.00875065 0.000147297 -0.0126985 0.000116 0.000968906 0.0108826 0.0161337 2650 
2512 1 -0.0058828 0.000611209 -0.0132236 0.000116 0.018779 -0.0192413 0.00230208 2650 
2609 1 -0.00866128 0.00154447 -0.0132619 0.000116 -0.00705034 0.0126459 0.00789545 2650 
2922 1 -0.00838848 0.00129681 -0.013117 0.000116 -0.00925852 -0.000802711 0.00675368 2650 
3917 1 -0.003984 0.00134103 -0.012703 0.000116 0 -0.011753 0 2650 
2059 1 -0.003583 0.00155003 -0.012756 0.000116 0 -0.011753 0 2650 
3316 1 -0.0102047 0.00167962 -0.0129848 0.000423 -0.00175347 -0.00333426 0.00352254 2650 
4374 1 -0.00961258 0.00330298 -0.0133604 4.2e-05 -0.00342399 0.0134868 -0.018776 2650 
421 1 -0.00769237 0.00349652 -0.0133099 0.000116 -0.434857 0.264773 0.172681 2650 
763 1 -0.00644068 0.00350305 -0.0130975 4.2e-05 0.0429385 0.0136209 0.0378616 2650 
1427 1 -0.002948 0.00388103 -0.013376 4.2e-05 0 -0.011753 0 2650 
2322 1 -0.00942012 0.00467223 -0.0131249 0.000656 -0.00463581 -0.0140818 0.00324309 2650 
4179 1 -0.00818209 0.00444077 -0.012817 0.000423 -0.000889884 -0.0208242 0.00186897 2650 
3362 1 -0.0025925 0.00458873 -0.0131155 0.000116 0.000350619 -0.00253681 -0.00404217 2650 
3071 1 -0.0104429 0.00498811 -0.0132575 4.2e-05 -0.0100464 -0.00669175 -0.0253889 2650 
1388 1 -0.00859609 0.00563121 -0.0126584 0.000116 -0.039288 0.0021603 0.0169103 2650 
85 1 -0.00386709 0.00587689 -0.0128482 0.000116 0.00137382 -0.0144979 -0.0229084 2650 
1250 1 -0.0097212 0.00690784 -0.0132523 0.000423 -0.00836241 -0.0100793 -0.00125625 2650 
2918 1 -0.00584754 0.00677743 -0.0127621 0.000116 0.00505241 -0.0228405 0.00344303 2650 
1241 1 -0.0098422 0.00779057 -0.0132488 0.000423 -0.00430629 -0.00887606 0.009217 2650 
3310 1 -0.00629221 0.00757946 -0.0128588 0.000423 -0.0172336 -0.0110983 -0.00553238 2650 
2912 1 -0.00524401 0.00771468 -0.0130155 0.000116 0.00196064 0.0151142 0.00117299 2650 
2851 1 -0.010316 0.00905409 -0.0133348 4.2e-05 -0.0250427 -0.0736478 0.0266106 2650 
1237 1 -0.0100934 0.0100287 -0.0131141 0.000423 -0.00981224 0.00808581 -9.19511e-05 2650 
1775 1 -0.00870832 0.00956951 -0.0131237 0.000423 -0.00400685 -0.00826371 0.00214879 2650 
1515 1 -0.00747812 0.00995762 -0.0127902 0.000116 0.0177619 0.00291086 0.0107264 2650 
1476 1 -0.00763005 0.0102015 -0.0134203 0.000423 -0.00215256 0.00359159 -0.000268574 2650 
2313 1 -0.00245959 0.0105005 -0.0129066 0.000656 0.0130233 0.0240514 0.0128306 2650 
3847 1 -0.00901533 0.01155 -0.0132951 0.000656 0.00598667 0.0140257 0.000109329 2650 
2205 1 -0.00542883 0.0134023 -0.013195 0.000656 0.00139343 0.00338011 -0.0129397 2650 
2798 1 -0.00653283 0.0136813 -0.013126 0.000423 0.00307291 0.0287307 -0.0047091 2650 
1806 1 -0.0054935 0.0152778 -0.0131795 0.000423 -0.00202734 0.023474 -0.0405341 2650 
1839 1 -0.00893623 0.0169165 -0.013106 0.000116 -0.0676852 0.0211351 0.0188737 2650 
2924 1 -0.0104963 0.0177259 -0.0132443 0.000116 -0.0447463 0.0323973 0.0311383 2650 
3742 1 -0.000117265 0.021104 -0.0130921 0.000423 -0.0115725 0.0238192 -0.00880768 2650 
3686 1 -0.00940038 0.0242166 -0.0133843 0.000116 0.0215061 0.0913964 -0.00906023 2650 
3165 1 -0.00732079 0.0243617 -0.0131826 0.000116 -0.042342 0.12169 0.0695027 2650 
4234 1 -0.00465618 0.0354735 -0.0132478 0.000116 0.00512064 0.0508026 0.0366661 2650 
4010 1 -0.00487068 0.0468678 -0.0129473 0.000116 0.0373387 0.0604042 0.0259593 2650 
3107 1 -0.0074883 0.048534 -0.0133578 0.000423 0.0679911 0.0796098 -0.0159807 2650 
3434 1 -0.000862175 0.050595 -0.0130956 0.000423 -0.0536535 0.0715806 0.0290732 2650 
1422 1 -0.00425285 -0.00302322 -0.0121257 4.2e-05 -0.0036076 -0.017528 0.00216624 2650 
3191 1 -0.0101669 -0.00113614 -0.0124288 0.000656 -0.00910125 -0.0063157 0.00903986 2650 
248 1 -0.00880136 -0.000856375 -0.0123574 0.000423 0.00587601 0.00187351 -0.00793864 2650 
2619 1 -0.00744618 -0.00114465 -0.0122399 0.000116 -0.0137973 -0.0204082 0.00531131 2650 
2954 1 -0.0677566 -0.000115996 -0.0124106 0.000116 -1.41308 0.00128004 7.69996 2650 
1832 1 -0.0677984 -0.000119234 -0.012182 0.000116 -1.38664 -0.0279578 7.71318 2650 
1529 1 -0.0678902 -5.77439e-05 -0.0120604 4.2e-05 -1.51016 -0.198524 7.89455 2650 
3389 1 -0.010415 -0.000161973 -0.012026 0.000116 0 -0.011753 0 2650 
1763 1 -0.00363287 0.000305546 -0.0125331 0.000656 0.0110536 0.0386342 0.0470271 2650 
3956 1 -0.0102786 0.000838101 -0.0121925 0.000656 -0.00901716 -0.00399901 0.00277037 2650 
3880 1 -0.0112986 0.00161343 -0.0119312 0.000423 -0.0126294 -0.000463257 0.0126924 2650 
4126 1 -0.00986595 0.00177029 -0.0124799 0.000116 -0.0261531 0.0084042 0.00402279 2650 
1261 1 -0.00800671 0.00297319 -0.0121627 0.000423 -0.00427187 -0.0142005 0.00299326 2650 
2473 1 -0.0102799 0.00318443 -0.0123533 0.000423 -0.0437212 0.0367029 0.0424505 2650 
1032 1 -0.00400312 0.0038726 -0.0122338 0.000423 0.0140776 0.00865188 0.010778 2650 
3030 1 -0.001189 0.00399603 -0.012596 0.000116 0 -0.011753 0 2650 
3259 1 -0.00871946 0.00549255 -0.0123821 0.000116 0.00136236 -0.0113258 0.00321419 2650 
3727 1 -0.00485763 0.00508825 -0.0120666 4.2e-05 -0.00143931 -0.00938471 -0.0055359 2650 
2194 1 -0.00129802 0.0048805 -0.0120124 4.2e-05 0.00491046 0.00111596 0.00228026 2650 
196 1 -0.0103014 0.00561649 -0.0126167 0.000116 -0.0225664 -0.00721534 -0.0375396 2650 
4002 1 -0.000443 0.00615703 -0.01223 0.000116 0 -0.011753 0 2650 
445 1 -0.0103979 0.00705171 -0.0123752 0.000656 -0.00704803 0.000634889 0.00193751 2650 
1795 1 -0.00909543 0.00686427 -0.01242 0.000423 -0.00163071 -0.00460203 0.00213749 2650 
4257 1 -0.00855553 0.00688389 -0.0124765 0.000116 0.0004138 -0.0084119 0.00828834 2650 
4318 1 -0.00818917 0.00657539 -0.0121496 0.000423 0.005748 -0.00322769 -0.00338514 2650 
963 1 -0.00667231 0.0067191 -0.0122533 0.000116 0.00350227 -0.00324664 0.0156587 2650 
2630 1 -0.001036 0.00633303 -0.012074 4.2e-05 0 -0.011753 0 2650 
1087 1 -0.00697498 0.00774379 -0.0122753 0.000116 -0.015492 -0.00435389 -0.0418947 2650 
136 1 -0.00687003 0.00738849 -0.0118641 0.000423 -0.011119 0.00866608 -0.0227148 2650 
1423 1 -0.00145 0.00781303 -0.012526 4.2e-05 0 -0.011753 0 2650 