ITEM: TIMESTEP
1360548
ITEM: NUMBER OF ATOMS
4382
ITEM: BOX BOUNDS ff ff ff
-0.15 0.15
-0.15 0.06
-0.15 0.15
ITEM: ATOMS id type x y z radius vx vy vz density 
2964 1 -0.0227389 -0.0618658 -0.0651004 4.2e-05 -1.63967 0.15017 0.579108 2650 
3444 1 -0.0361647 -0.0494736 -0.0582674 0.000423 -3.72982 -0.37139 2.33849 2650 
3313 1 -0.0362883 -0.0484708 -0.0581909 0.000423 -3.41444 -0.819948 2.12502 2650 
741 1 -0.0670088 -0.0593733 -0.0159562 0.000116 -0.978513 0.0941081 3.93978 2650 
1845 1 -0.0675932 -0.0607308 -0.0132576 0.000116 -0.510363 -0.102535 2.79772 2650 
3143 1 -0.0683833 -0.0609982 0.0082887 0.000116 0.543063 0.174349 4.35699 2650 
3810 1 -0.0491407 -0.056104 0.0482335 0.000116 2.74127 -0.520582 2.78987 2650 
482 1 -0.00938549 -0.0519304 0.0679332 0.000423 3.50722 -0.994091 0.49724 2650 
1638 1 -0.00199196 -0.0258248 -0.0688549 0.000116 -4.12716 -0.798032 0.135639 2650 
3619 1 -0.00360489 -0.0064406 -0.0688639 4.2e-05 -3.27239 -0.14057 0.163048 2650 
3845 1 -0.000374467 -0.0179321 -0.0683437 0.000656 -3.29749 -0.638036 0.0104114 2650 
1383 1 -0.00685953 -0.0108206 -0.068542 0.000116 -3.09463 -0.260773 0.314143 2650 
4345 1 -0.00513783 -0.0135164 -0.0673503 0.000116 -3.87407 -0.350038 -0.986761 2650 
259 1 -0.00193679 -0.00531197 -0.0667821 0.000423 -3.3604 -0.0753105 -0.447158 2650 
3156 1 -0.0189254 -0.0141379 -0.0662272 0.000116 -3.02524 -0.420903 1.04384 2650 
2057 1 -0.00806514 -0.0074917 -0.0663189 0.000116 -3.25402 -0.191329 -1.723 2650 
2618 1 -0.0131866 -0.0110028 -0.0653743 0.000116 -3.1341 -0.314541 -1.16291 2650 
691 1 -0.0254905 -0.00747428 -0.063665 0.000423 -3.05558 -0.0417868 1.20679 2650 
4025 1 -0.028622 -0.00478284 -0.0626561 0.000116 -2.89388 -0.0921244 1.30417 2650 
2123 1 -0.0179758 -0.0117474 -0.0619434 0.000423 -2.8151 -0.461004 -9.71524 2650 
1239 1 -0.0241885 -0.0199419 -0.0611798 0.000423 -3.69132 -1.42604 -9.31172 2650 
3329 1 -0.0314781 -0.0141635 -0.0609271 0.000423 -3.66914 -0.378365 1.88978 2650 
1687 1 -0.0395416 -0.0164822 -0.0560232 0.000423 -2.99285 -0.182873 2.20508 2650 
3945 1 -0.0422711 -0.0092904 -0.0544821 4.2e-05 -2.58812 -0.257137 2.05618 2650 
2224 1 -0.0434694 -0.00515689 -0.0530407 0.000423 -2.52777 0.167724 2.05353 2650 
1568 1 -0.0450739 -0.0224355 -0.0516837 0.000423 -3.33601 -0.365587 2.9183 2650 
4372 1 -0.0460465 -0.0175451 -0.0513314 4.2e-05 -2.50087 -0.537346 2.24505 2650 
3718 1 -0.0455878 -0.0164399 -0.0517392 4.2e-05 -2.87627 -0.291258 2.51569 2650 
3266 1 -0.0375771 -0.00643486 -0.0518129 0.000116 -5.83309 -0.248117 -8.03819 2650 
1943 1 -0.0111878 -0.0122426 -0.04896 0.000116 -1.68076 -0.949492 -7.27285 2650 
4342 1 -0.0488985 -0.00773137 -0.0457899 0.000116 -0.418769 -0.202611 3.86287 2650 
1372 1 -0.0512376 -0.00563952 -0.0440902 0.000423 -7.91021 -0.202279 -6.82455 2650 
1957 1 -0.0535154 -0.00656087 -0.0433699 0.000116 -2.02465 -0.182939 2.61621 2650 
4187 1 -0.0559128 -0.0218107 -0.039707 0.000423 -2.02799 -0.490146 2.89788 2650 
2806 1 -0.056384 -0.0175591 -0.0395637 0.000116 -1.95374 -0.691227 2.74829 2650 
2208 1 -0.0226327 -0.00626599 -0.0390331 0.000656 -3.53868 -0.2232 -6.09459 2650 
1818 1 -0.0579644 -0.00494646 -0.0372161 0.000116 -1.71568 -0.055429 2.68446 2650 
3482 1 -0.0257639 -0.00630195 -0.0334665 0.000116 -3.93296 -0.264306 -5.11404 2650 
3547 1 -0.0589577 -0.00543033 -0.0329946 0.000423 -2.20021 0.171213 2.85046 2650 
1990 1 -0.0207466 -0.00761365 -0.0292032 0.000656 -3.24942 -0.291392 -4.56237 2650 
3918 1 -0.0628514 -0.00655306 -0.0281915 0.000116 -1.36884 -0.202517 3.11525 2650 
3650 1 -0.00416481 -0.00620541 -0.0268255 0.000423 -0.63617 -0.291709 -4.07633 2650 
821 1 -0.0641195 -0.00959301 -0.0243249 0.000423 -1.16854 -0.22312 3.09501 2650 
3409 1 -0.0186741 -0.00907053 -0.0230688 0.000656 -2.42081 -0.898253 -3.12052 2650 
2920 1 -0.00877385 -0.00863142 -0.0222012 0.000116 -1.37353 -0.347954 -3.45414 2650 
2271 1 -0.0637138 -0.00850911 -0.0216 0.000116 -3.13786 -0.317068 2.00476 2650 
1312 1 -0.0624027 -0.00497567 -0.0205139 4.2e-05 -0.770795 -0.165617 2.88139 2650 
538 1 -0.00348688 -0.0042855 -0.0206651 0.000116 -0.460604 -0.128135 -2.99429 2650 
1387 1 -0.0218788 -0.00538481 -0.020101 0.000116 -3.12062 -0.23733 -2.97756 2650 
3875 1 -0.0660827 -0.00710911 -0.0183298 0.000423 -0.86446 -0.147715 3.0229 2650 
734 1 -0.0665393 -0.0190436 -0.0178184 0.000116 -0.873186 -0.370764 3.16566 2650 
4353 1 -0.0666376 -0.0146601 -0.017448 0.000116 -0.910003 -0.29981 3.4021 2650 
1670 1 -0.0374137 -0.0074177 -0.0175477 0.000423 -5.85339 -0.276525 -2.73776 2650 
1068 1 -0.0206998 -0.00392978 -0.0179997 0.000116 -2.73807 -0.104317 -2.38539 2650 
2337 1 -0.0170257 -0.00398477 -0.0169614 0.000423 -2.37496 -0.104462 -2.36454 2650 
606 1 -0.000183 0.004866 -0.016592 0.000116 0 -0.011753 0 2650 
2713 1 -0.000763 0.011837 -0.016767 0.000116 0 -0.011753 0 2650 
4307 1 -0.0211621 -0.00441332 -0.016021 0.000423 -2.95646 -0.151446 -2.27383 2650 
2846 1 -0.0109879 -0.00356411 -0.0162755 4.2e-05 -1.43326 -0.058005 -2.12297 2650 
4116 1 -0.004072 -0.000790997 -0.016193 0.000116 0 -0.011753 0 2650 
93 1 -0.00354 -0.000379997 -0.016299 0.000116 0 -0.011753 0 2650 
1991 1 -0.002768 0.001199 -0.01599 0.000656 0 -0.011753 0 2650 
736 1 -0.003429 0.002791 -0.016474 0.000116 0 -0.011753 0 2650 
2013 1 -0.00313441 0.00400595 -0.016042 0.000423 0.00266818 -0.00871737 -0.00337826 2650 
3789 1 -0.00193802 0.00456688 -0.0160152 0.000116 -0.0185147 0.0392615 -0.0216295 2650 
3546 1 -0.002797 0.005928 -0.016252 0.000423 0 -0.011753 0 2650 
2301 1 -0.004222 0.006639 -0.016305 4.2e-05 0 -0.011753 0 2650 
615 1 -0.0041324 0.00644226 -0.0160334 0.000116 -0.304292 -0.202476 0.0637749 2650 
188 1 -0.00068 0.006408 -0.016516 0.000116 0 -0.011753 0 2650 
3616 1 -0.000938 0.007203 -0.016074 4.2e-05 0 -0.011753 0 2650 
171 1 -0.00237446 0.00902815 -0.0163236 0.000116 -0.0348781 -0.0493867 -0.266281 2650 
3934 1 -0.001977 0.009628 -0.016218 0.000116 0 -0.011753 0 2650 
1735 1 -0.0030605 -0.00379515 -0.0155473 0.000116 -0.32168 -0.0960119 -1.95113 2650 
3441 1 -0.005522 -0.002457 -0.01502 0.000423 0 -0.011753 0 2650 
3295 1 -0.00262979 -0.00277582 -0.0156913 0.000656 -0.0259609 -0.0460209 -0.0625831 2650 
330 1 -0.001698 -0.001116 -0.015557 4.2e-05 0 -0.011753 0 2650 
2965 1 -2.2e-05 -0.000809997 -0.015341 4.2e-05 0 -0.011753 0 2650 
3733 1 -0.00258453 -0.00073575 -0.0155852 0.000656 -0.00903733 0.00595212 -0.0173299 2650 
955 1 -0.000733158 1.5065e-05 -0.0150619 0.000116 -0.166358 0.0459831 -0.432843 2650 
1679 1 -0.00360655 0.00361174 -0.0154353 0.000423 0.00038771 -0.00537817 -0.000606382 2650 
3645 1 -0.00170756 0.00361206 -0.0154134 0.000423 -0.016092 0.00258107 0.0270932 2650 
4165 1 -0.00561436 0.00521372 -0.0150105 0.000656 0.00622358 0.0106794 0.0127596 2650 
3322 1 -0.0046855 0.00542523 -0.0157875 0.000423 -0.00518347 -0.0180774 0.0210045 2650 
2399 1 -0.002418 0.00508 -0.015541 0.000116 0 -0.011753 0 2650 
4296 1 -0.00157489 0.00562244 -0.0155863 0.000423 -0.000356005 -0.0132873 -0.00240934 2650 
1986 1 -0.00403923 0.00762365 -0.0155042 0.000656 0.00762539 0.0149956 0.0116892 2650 
2969 1 -0.001381 0.00765 -0.015354 0.000656 0 -0.011753 0 2650 
978 1 -0.005372 0.008326 -0.015286 0.000116 0 -0.011753 0 2650 
3106 1 -0.00255448 0.00975966 -0.015484 0.000423 -0.0614671 0.0102652 -0.236691 2650 
1974 1 -0.00330438 0.0105783 -0.0157768 4.2e-05 -0.122631 0.0919633 -0.222648 2650 
2701 1 -0.00308834 0.0105557 -0.0151504 0.000116 0.0331549 0.247236 -0.00676049 2650 
86 1 -0.002064 0.010884 -0.015055 0.000116 0 -0.011753 0 2650 
3177 1 -0.001068 0.010684 -0.015412 4.2e-05 0 -0.011753 0 2650 
3830 1 -0.006879 0.01118 -0.015411 4.2e-05 0 -0.011753 0 2650 
884 1 -0.00514685 0.0125916 -0.0150003 0.000656 -0.0208298 0.0223044 0.0346035 2650 
728 1 -0.00434205 0.0120329 -0.015234 0.000116 -0.0650853 0.147179 0.0609561 2650 
938 1 -0.000869 0.01209 -0.015416 0.000116 0 -0.011753 0 2650 
3632 1 -0.00620644 0.012831 -0.0151444 0.000423 -0.0309354 -0.00107411 -0.000159427 2650 
1357 1 -0.00496928 0.0154808 -0.0156012 0.000423 -0.0662446 0.165624 0.033916 2650 
78 1 -0.00318192 0.0531131 -0.0150658 0.000116 -0.560556 -0.579808 -0.507731 2650 
2256 1 -0.001753 -0.003006 -0.014775 0.000116 0 -0.011753 0 2650 
747 1 -0.001416 -0.002986 -0.014317 0.000116 0 -0.011753 0 2650 
3303 1 -0.00688453 -0.00207487 -0.014786 0.000656 0.00315709 -0.0674144 0.012339 2650 
3502 1 -0.001236 -0.002011 -0.014816 4.2e-05 0 -0.011753 0 2650 
3422 1 -0.0670923 -0.000540662 -0.0141892 0.000423 -0.650953 -0.063803 3.42677 2650 
1640 1 -0.001358 -0.000677997 -0.014495 4.2e-05 0 -0.011753 0 2650 
2313 1 -0.005044 0.000166003 -0.014923 0.000656 0 -0.011753 0 2650 
2413 1 -0.003433 4.00345e-06 -0.014868 4.2e-05 0 -0.011753 0 2650 
1053 1 -0.007469 0.001238 -0.014946 0.000116 0 -0.011753 0 2650 
2332 1 -0.003268 0.001529 -0.014853 0.000423 0 -0.011753 0 2650 
3239 1 -0.002155 0.001448 -0.014442 0.000116 0 -0.011753 0 2650 
1569 1 -0.00214384 0.00390079 -0.0143131 0.000423 -0.0214881 0.00570095 0.0411068 2650 
1219 1 -0.0040486 0.00470687 -0.0147001 0.000656 0.035204 0.0225104 -0.0281999 2650 
220 1 -0.003649 0.004143 -0.014897 4.2e-05 0 -0.011753 0 2650 
104 1 -0.00218 0.004392 -0.014554 4.2e-05 0 -0.011753 0 2650 
541 1 -0.000183634 0.00398625 -0.0144181 4.2e-05 -0.135438 -0.249779 -0.101528 2650 
3121 1 -0.00729862 0.00507706 -0.0148388 0.000423 0.0183884 -0.00063976 -0.0298352 2650 
3147 1 -0.00188318 0.00480798 -0.0148345 0.000116 -0.00706837 0.0221131 0.0132401 2650 
3564 1 -0.000147 0.006869 -0.014738 0.000423 0 -0.011753 0 2650 
2438 1 -0.005612 0.007441 -0.014612 0.000423 0 -0.011753 0 2650 
3365 1 -0.002315 0.007506 -0.014552 0.000116 0 -0.011753 0 2650 
4190 1 -0.007319 0.009176 -0.014559 0.000423 0 -0.011753 0 2650 
3515 1 -0.00507332 0.00951341 -0.014851 0.000656 -0.0258541 -0.014476 -0.00535425 2650 
1228 1 -0.001302 0.010961 -0.014946 0.000423 0 -0.011753 0 2650 
371 1 -0.000516415 0.010863 -0.0143468 0.000423 -0.000508818 -0.00613125 -0.00679769 2650 
2250 1 -0.00485033 0.0112243 -0.0142932 0.000423 -0.0796097 0.0756391 0.0421091 2650 
3204 1 -0.0671252 -0.00338631 -0.0139949 0.000423 -0.846617 0.399964 4.09726 2650 
3229 1 -0.006614 -0.002888 -0.01374 0.000423 0 -0.011753 0 2650 
3622 1 -0.00542036 -0.00288817 -0.0136973 0.000656 0.00467838 -0.0472728 -0.0117267 2650 
327 1 -0.003849 -0.002768 -0.013874 4.2e-05 0 -0.011753 0 2650 
2705 1 -0.001432 -0.002949 -0.013674 0.000116 0 -0.011753 0 2650 
1393 1 -0.009523 -0.001661 -0.013534 0.000116 0 -0.011753 0 2650 
2939 1 -0.008405 -0.001965 -0.013483 0.000116 0 -0.011753 0 2650 
4056 1 -0.00431451 -0.00131948 -0.0134218 0.000656 0.0589984 -0.0321199 -0.018168 2650 
2957 1 -0.00985143 -0.000690237 -0.0134511 4.2e-05 0.190271 0.24155 -0.0115339 2650 
2783 1 -0.003328 -0.000625997 -0.013758 0.000423 0 -0.011753 0 2650 
4126 1 -0.001667 -0.000552997 -0.013741 0.000116 0 -0.011753 0 2650 
3778 1 -0.003893 0.000891003 -0.013816 0.000423 0 -0.011753 0 2650 
1620 1 -0.008456 0.00291 -0.013856 0.000116 0 -0.011753 0 2650 
2293 1 -0.000947341 0.00390314 -0.0137688 0.000116 0.0416688 0.071753 -0.100968 2650 
2547 1 -0.00803144 0.0046626 -0.0137625 0.000423 -0.0496338 0.0303678 0.0549021 2650 
1059 1 -0.00675923 0.00427151 -0.0134914 0.000116 -0.00683586 -0.0187509 0.0600761 2650 
3587 1 -0.006279 0.004167 -0.013694 0.000116 0 -0.011753 0 2650 
2485 1 -0.00532911 0.00482918 -0.0140238 0.000116 0.299414 -0.019051 -0.0765765 2650 
2322 1 -0.00705821 0.00827418 -0.0134784 0.000656 -0.00732336 -0.00366906 -0.00588437 2650 
713 1 -0.00477553 0.00865837 -0.0141161 0.000423 -0.0205718 -0.00213651 0.0254432 2650 
1288 1 -0.002467 0.008809 -0.014044 0.000116 0 -0.011753 0 2650 
2222 1 -0.000169 0.009438 -0.014111 0.000423 0 -0.011753 0 2650 
581 1 -0.005568 0.01033 -0.014167 0.000423 0 -0.011753 0 2650 
1476 1 -0.006941 0.011609 -0.013435 0.000423 0 -0.011753 0 2650 
1381 1 -0.00574525 0.0118301 -0.013902 0.000116 -0.187535 0.0807472 -0.110843 2650 
2596 1 -0.00131056 0.0111323 -0.013905 0.000116 -0.0696583 -0.0414928 -0.0233005 2650 
3669 1 -0.00058112 0.0117461 -0.0140956 0.000423 0.00220454 -0.00743356 -0.00383523 2650 
1409 1 -0.00044 0.012589 -0.013868 0.000116 0 -0.011753 0 2650 
428 1 -0.00922 -0.002919 -0.013206 0.000116 0 -0.011753 0 2650 
3633 1 -0.00941 -0.002395 -0.013111 0.000423 0 -0.011753 0 2650 
3015 1 -0.00836494 -0.0029758 -0.0130455 0.000423 -0.000783602 -0.0132544 -0.00211019 2650 
827 1 -0.005975 -0.003092 -0.013005 0.000116 0 -0.011753 0 2650 
167 1 -0.004273 -0.002934 -0.012826 0.000116 0 -0.011753 0 2650 
1487 1 -0.004643 -0.002525 -0.013241 0.000116 0 -0.011753 0 2650 
2732 1 -0.002992 -0.002999 -0.013183 0.000116 0 -0.011753 0 2650 
3551 1 -0.005293 0.000950003 -0.013215 0.000423 0 -0.011753 0 2650 
1125 1 -0.000165 0.001537 -0.013134 0.000423 0 -0.011753 0 2650 
4371 1 -0.000719 0.002348 -0.012831 0.000116 0 -0.011753 0 2650 
2525 1 -0.004063 0.003036 -0.013231 4.2e-05 0 -0.011753 0 2650 
2283 1 -0.000701 0.002663 -0.012847 0.000116 0 -0.011753 0 2650 
1595 1 -0.007474 0.003694 -0.012756 0.000423 0 -0.011753 0 2650 
2619 1 -0.005851 0.003852 -0.012854 0.000116 0 -0.011753 0 2650 
2609 1 -0.00886 0.004576 -0.013248 0.000116 0 -0.011753 0 2650 
3380 1 -0.00383755 0.00413768 -0.0127203 0.000116 0.0317028 -0.0320627 -0.198117 2650 
3880 1 -0.010277 0.004768 -0.012913 0.000423 0 -0.011753 0 2650 
3917 1 -0.003984 0.005337 -0.012703 0.000116 0 -0.011753 0 2650 
2194 1 -0.002781 0.00499 -0.012701 4.2e-05 0 -0.011753 0 2650 
2918 1 -0.00757 0.005927 -0.012948 0.000116 0 -0.011753 0 2650 
2059 1 -0.003583 0.005546 -0.012756 0.000116 0 -0.011753 0 2650 
4078 1 -0.00629418 0.00761632 -0.0128953 0.000423 -0.0196946 -0.00953845 0.00130892 2650 
1427 1 -0.002948 0.007877 -0.013376 4.2e-05 0 -0.011753 0 2650 
3259 1 -0.008055 0.008942 -0.013388 0.000116 0 -0.011753 0 2650 
4318 1 -0.00781252 0.00871096 -0.0127547 0.000423 -0.00589465 -0.00768269 0.00318441 2650 
1795 1 -0.008775 0.009876 -0.012959 0.000423 0 -0.011753 0 2650 
1769 1 -0.004822 0.009797 -0.013243 0.000656 0 -0.011753 0 2650 
205 1 -0.000744 0.010593 -0.01334 0.000116 0 -0.011753 0 2650 
4314 1 -0.00472528 0.0119754 -0.0127613 0.000423 -0.0907604 0.0399241 0.0421111 2650 
1775 1 -0.008218 0.013268 -0.012996 0.000423 0 -0.011753 0 2650 
2483 1 -0.00814151 0.0127709 -0.0126864 0.000116 -0.0200638 7.34443e-05 -0.0363305 2650 
4160 1 -0.006657 0.012959 -0.013271 4.2e-05 0 -0.011753 0 2650 
3644 1 -0.000733 0.013264 -0.013392 0.000423 0 -0.011753 0 2650 
1026 1 -0.00537351 0.0276333 -0.0129249 0.000423 -0.376135 0.353379 -0.383847 2650 
3294 1 -0.00683315 0.0329387 -0.0127376 0.000656 -0.0563035 0.49326 0.113749 2650 
4068 1 -0.001953 -0.003233 -0.012327 0.000423 0 -0.011753 0 2650 
2685 1 -0.00821383 -0.00258537 -0.0123052 0.000423 -0.0435841 -0.0507847 0.0344431 2650 
2238 1 -0.00685415 -0.00305036 -0.0122701 0.000423 0.00330829 -0.0451229 0.0143354 2650 
3200 1 -0.00614277 -0.00254469 -0.0122582 0.000423 -0.00150566 -0.0322137 0.00127489 2650 
4150 1 -0.001319 -0.00239 -0.012208 0.000116 0 -0.011753 0 2650 
868 1 -0.000201 -0.002765 -0.012301 0.000116 0 -0.011753 0 2650 
3261 1 -0.010533 -0.00193297 -0.0121076 0.000116 -0.0103871 -0.0646193 0.0251386 2650 
1924 1 -0.0103324 -0.00136399 -0.0122252 0.000423 0.000254196 -0.0523207 0.0386036 2650 
545 1 -0.002328 -0.000938997 -0.012432 4.2e-05 0 -0.011753 0 2650 
2819 1 -0.007468 -0.000404997 -0.012046 0.000116 0 -0.011753 0 2650 
2468 1 -0.003167 -0.000565997 -0.012131 0.000423 0 -0.011753 0 2650 
1763 1 -0.001143 -0.000277997 -0.012442 0.000656 0 -0.011753 0 2650 
950 1 -0.010031 0.000327003 -0.011866 0.000116 0 -0.011753 0 2650 
3643 1 -0.00474609 0.000902596 -0.0118789 0.000423 -0.0276464 -0.00536394 0.0154079 2650 
1422 1 -0.003881 0.001568 -0.012349 4.2e-05 0 -0.011753 0 2650 
3637 1 -0.002026 0.000901003 -0.012108 0.000423 0 -0.011753 0 2650 
623 1 -0.005429 0.002075 -0.012246 0.000116 0 -0.011753 0 2650 
3956 1 -0.008956 0.003154 -0.012273 0.000656 0 -0.011753 0 2650 
1799 1 -0.003237 0.002383 -0.012061 0.000423 0 -0.011753 0 2650 
3389 1 -0.010415 0.003834 -0.012026 0.000116 0 -0.011753 0 2650 
856 1 -0.00357281 0.00348066 -0.0123176 0.000116 0.0675892 -0.133711 -0.0889902 2650 
1589 1 -0.00953703 0.0043312 -0.0123989 0.000423 -0.0647442 0.0335493 0.0762813 2650 
2253 1 -0.00231781 0.00438388 -0.0124243 0.000423 0.0920831 0.035812 0.016033 2650 
1657 1 -0.00875503 0.00504124 -0.0120681 0.000656 -0.00770092 -0.0112608 -0.00233815 2650 
411 1 -0.009436 0.005502 -0.012079 0.000116 0 -0.011753 0 2650 
3826 1 -0.009208 0.005729 -0.012552 0.000116 0 -0.011753 0 2650 
4241 1 -0.000536578 0.00582376 -0.0126149 0.000116 0.0418184 0.0132573 0.0231045 2650 
3316 1 -0.008979 0.006482 -0.012376 0.000423 0 -0.011753 0 2650 
1261 1 -0.007462 0.006386 -0.012403 0.000423 0 -0.011753 0 2650 
3362 1 -0.002672 0.006495 -0.012199 0.000116 0 -0.011753 0 2650 
3446 1 -0.002592 0.007489 -0.012627 0.000423 0 -0.011753 0 2650 
2777 1 -0.00570386 0.00855594 -0.0123582 0.000423 -0.035076 0.0434508 0.0575263 2650 
3030 1 -0.001189 0.007992 -0.012596 0.000116 0 -0.011753 0 2650 
191 1 -0.011348 0.009313 -0.012254 0.000116 0 -0.011753 0 2650 
70 1 -0.0101675 0.00918941 -0.0125188 0.000116 -0.0317714 0.0507307 -0.0226714 2650 
1495 1 -0.004483 0.00946 -0.012591 0.000116 0 -0.011753 0 2650 
3847 1 -0.009739 0.009914 -0.012406 0.000656 0 -0.011753 0 2650 
3173 1 -0.004958 0.010121 -0.012321 4.2e-05 0 -0.011753 0 2650 
4002 1 -0.000443 0.010153 -0.01223 0.000116 0 -0.011753 0 2650 
1250 1 -0.007399 0.010639 -0.012448 0.000423 0 -0.011753 0 2650 
2630 1 -0.001036 0.010329 -0.012074 4.2e-05 0 -0.011753 0 2650 
65 1 -0.009488 0.011534 -0.011959 0.000116 0 -0.011753 0 2650 
2109 1 -0.00229916 0.0114428 -0.0125276 0.000423 -0.0263796 0.073224 -0.0180073 2650 
1423 1 -0.00145 0.011809 -0.012526 4.2e-05 0 -0.011753 0 2650 
1578 1 -0.00841101 0.0126653 -0.011938 0.000423 -0.0917795 0.00602193 0.00454943 2650 
2205 1 -0.00481829 0.012976 -0.0123473 0.000656 0.000183776 -0.0119531 -0.000657984 2650 
1900 1 -0.00471384 0.0160591 -0.0119085 0.000423 -0.0944124 0.200719 -0.0873639 2650 
3999 1 -0.00570368 -0.00304666 -0.011727 0.000423 0.00763752 -0.0229993 0.0101133 2650 
3679 1 -0.012092 -0.002228 -0.011604 0.000116 0 -0.011753 0 2650 
2072 1 -0.009308 -0.002366 -0.011721 0.000116 0 -0.011753 0 2650 
1320 1 -0.000849386 -0.00218142 -0.0115468 4.2e-05 -0.254702 -0.0436543 -0.0976793 2650 
2166 1 -0.009005 -0.000859997 -0.011549 0.000116 0 -0.011753 0 2650 
3505 1 -0.006952 -0.00127 -0.011235 4.2e-05 0 -0.011753 0 2650 
3191 1 -0.00502312 -0.00136972 -0.0115329 0.000656 -0.0442695 0.00235925 -0.00260127 2650 
1022 1 -0.002093 -0.0014 -0.011454 0.000423 0 -0.011753 0 2650 
249 1 -0.0101409 -0.000700874 -0.0115048 0.000423 -0.0404414 -0.0377152 0.0629853 2650 
3196 1 -0.00637462 -0.000523741 -0.0110716 0.000423 0.0418395 0.00921167 -0.158288 2650 
2022 1 -0.00533316 -0.000222111 -0.0111515 0.000423 -0.025362 0.0209777 0.00742457 2650 
1901 1 -0.00385908 -8.24107e-05 -0.0117064 0.000423 -0.0220801 -0.0570589 0.0406976 2650 
2827 1 -0.001988 0.000269003 -0.011163 0.000116 0 -0.011753 0 2650 
440 1 -0.00061 3.20035e-05 -0.011485 4.2e-05 0 -0.011753 0 2650 
4215 1 -0.011184 0.002141 -0.011524 0.000423 0 -0.011753 0 2650 
2579 1 -0.008716 0.002151 -0.011261 0.000423 0 -0.011753 0 2650 
1452 1 -0.00129798 0.00195257 -0.0111887 0.000423 0.00554637 -0.012591 0.0031522 2650 
2279 1 -0.011345 0.002704 -0.01145 0.000116 0 -0.011753 0 2650 
3411 1 -0.0100939 0.00264297 -0.011674 0.000656 0.0131942 0.0130309 0.0293002 2650 
3535 1 -9.9e-05 0.002444 -0.011488 0.000423 0 -0.011753 0 2650 
3223 1 -0.0105789 0.00359592 -0.0110992 0.000423 -0.0120555 0.0292219 0.0276155 2650 
1063 1 -0.009531 0.003758 -0.011683 0.000116 0 -0.011753 0 2650 
3894 1 -0.005583 0.003203 -0.011098 0.000116 0 -0.011753 0 2650 
1579 1 -0.000890621 0.00380675 -0.0111687 0.000423 0.0668846 -0.0415085 -0.175467 2650 
3383 1 -0.011681 0.004753 -0.011229 0.000116 0 -0.011753 0 2650 
2294 1 -0.004894 0.005439 -0.011565 0.000116 0 -0.011753 0 2650 
3542 1 -0.00382173 0.00494648 -0.0112566 0.000423 0.00241856 -0.00915467 -0.000529042 2650 
933 1 -0.0112702 0.00595284 -0.0116383 0.000423 -0.102456 0.0140485 0.124832 2650 
878 1 -0.003908 0.005922 -0.011202 4.2e-05 0 -0.011753 0 2650 
708 1 -0.00252 0.005635 -0.011391 0.000423 0 -0.011753 0 2650 
1215 1 -0.00971959 0.0069388 -0.0114094 0.000656 -0.00949184 -0.0199862 0.00772603 2650 
1822 1 -0.008034 0.006492 -0.011166 0.000116 0 -0.011753 0 2650 
234 1 -0.004437 0.006465 -0.011677 0.000423 0 -0.011753 0 2650 
1758 1 -0.00201 0.006753 -0.01144 4.2e-05 0 -0.011753 0 2650 
958 1 -0.00222938 0.00660865 -0.0112539 0.000116 -0.112936 0.0629473 -0.172921 2650 
222 1 -0.00131491 0.00684531 -0.0117763 0.000656 -0.00297797 -0.0641339 -0.0320517 2650 
4027 1 -0.003218 0.007884 -0.011075 0.000116 0 -0.011753 0 2650 
2409 1 -0.002586 0.007823 -0.011527 4.2e-05 0 -0.011753 0 2650 
1327 1 -0.0101354 0.00862022 -0.0116503 0.000656 -0.0965821 0.0675546 0.110106 2650 
4066 1 -0.00636512 0.00842061 -0.0112991 0.000656 -0.00432864 0.007729 0.025362 2650 
2913 1 -0.00362924 0.0085066 -0.0113779 0.000116 -0.028239 -0.0119827 -0.0130286 2650 
2798 1 -0.008755 0.008923 -0.01131 0.000423 0 -0.011753 0 2650 
1617 1 -0.00424 0.009812 -0.011492 0.000116 0 -0.011753 0 2650 
3684 1 -0.00483 0.011094 -0.011273 0.000116 0 -0.011753 0 2650 
1663 1 -0.009704 0.012207 -0.011499 0.000423 0 -0.011753 0 2650 
3145 1 -0.006381 0.012275 -0.011273 0.000116 0 -0.011753 0 2650 
2111 1 -0.009632 0.013194 -0.011343 0.000423 0 -0.011753 0 2650 
911 1 -0.0073451 0.01279 -0.0118051 0.000423 -0.0610785 0.041843 0.0219805 2650 
1143 1 -0.00179393 0.0130257 -0.0117684 0.000423 0.00744219 0.00969658 -0.00437689 2650 
976 1 -0.005828 0.013652 -0.011785 0.000116 0 -0.011753 0 2650 
1346 1 -0.00124708 0.0145391 -0.011611 0.000423 0.0112383 0.146251 0.0960885 2650 
3859 1 -0.00336619 0.0157842 -0.0113292 0.000423 0.0625424 0.161989 -0.116581 2650 
406 1 -0.00270955 -0.00359974 -0.0102924 0.000116 -0.364872 -0.061643 -1.38599 2650 
4285 1 -0.0119642 -0.00242058 -0.0106984 0.000423 -0.193296 0.0601431 -0.0815947 2650 
2820 1 -0.007052 -0.00301 -0.010962 0.000116 0 -0.011753 0 2650 
3265 1 -0.006001 -0.003022 -0.010684 0.000116 0 -0.011753 0 2650 
3603 1 -0.004768 -0.001666 -0.010424 0.000116 0 -0.011753 0 2650 
4373 1 -0.004239 -0.002004 -0.010869 4.2e-05 0 -0.011753 0 2650 
15 1 -0.001892 -0.001613 -0.010407 0.000423 0 -0.011753 0 2650 
3426 1 -0.000996691 -0.00227086 -0.0105853 0.000423 -0.000402393 -0.0123419 -0.000971192 2650 
2848 1 -0.010456 -0.000968997 -0.010698 4.2e-05 0 -0.011753 0 2650 
704 1 -0.0111599 -0.000284539 -0.0108369 0.000423 -0.0072803 0.273464 0.163165 2650 
3960 1 -0.008634 -6.09965e-05 -0.010875 0.000423 0 -0.011753 0 2650 
3093 1 -0.002889 -0.000373997 -0.010782 0.000423 0 -0.011753 0 2650 
2130 1 -0.000316 -0.000548997 -0.010491 0.000423 0 -0.011753 0 2650 
388 1 -0.008271 0.000535003 -0.010879 0.000116 0 -0.011753 0 2650 
3673 1 -0.00272 0.000481003 -0.010833 0.000423 0 -0.011753 0 2650 
3284 1 -0.001323 0.000506003 -0.010635 4.2e-05 0 -0.011753 0 2650 
1193 1 -4.3e-05 1.70035e-05 -0.010628 0.000116 0 -0.011753 0 2650 
3311 1 -0.0119733 0.00110307 -0.0104094 0.000423 -0.165072 0.00955327 0.0199838 2650 
123 1 -0.0109959 0.000926654 -0.010679 0.000423 0.0772288 0.286643 0.0862704 2650 
2542 1 -0.005905 0.000820003 -0.010347 0.000423 0 -0.011753 0 2650 
3530 1 -0.000573 0.000976003 -0.010526 0.000423 0 -0.011753 0 2650 
1233 1 -0.012882 0.002135 -0.010287 0.000423 0 -0.011753 0 2650 
1160 1 -0.0104584 0.00195972 -0.0103625 0.000116 -0.0234924 0.0511302 -0.0170349 2650 
4104 1 -0.0096788 0.00297278 -0.0106961 0.000423 0.0152965 0.00645275 0.0397289 2650 
497 1 -0.00574 0.003129 -0.010398 0.000116 0 -0.011753 0 2650 
124 1 -0.005032 0.003034 -0.01051 0.000423 0 -0.011753 0 2650 
2763 1 -0.000686965 0.00292209 -0.0109642 0.000423 -0.0043689 -0.101149 0.12277 2650 
1192 1 -0.004051 0.003353 -0.010435 0.000116 0 -0.011753 0 2650 
3201 1 -0.00218891 0.00355816 -0.0108355 0.000423 -0.0605399 -0.0413426 -0.023818 2650 
3351 1 -0.00518755 0.00458296 -0.0106657 0.000116 0.0791294 -0.101341 -0.231207 2650 
2912 1 -0.006578 0.005296 -0.010859 0.000116 0 -0.011753 0 2650 
2823 1 -0.00473194 0.00474196 -0.0109571 0.000116 0.493141 -0.0432455 0.634723 2650 
2471 1 -0.00909665 0.00610451 -0.0108941 0.000423 -0.0907234 0.0202287 0.0449903 2650 
3787 1 -0.006362 0.005732 -0.010668 0.000116 0 -0.011753 0 2650 
760 1 -0.006943 0.006069 -0.010573 4.2e-05 0 -0.011753 0 2650 
861 1 -0.006339 0.006243 -0.010358 0.000116 0 -0.011753 0 2650 
2326 1 -0.0117692 0.00693128 -0.0106561 0.000423 0.00434717 -0.0219119 0.00771378 2650 
2500 1 -0.010648 0.007618 -0.010771 0.000116 0 -0.011753 0 2650 
4166 1 -0.0042167 0.00772336 -0.0105376 0.000656 -0.000473877 -0.0124048 -0.000834416 2650 
2948 1 -0.002008 0.007435 -0.010384 0.000116 0 -0.011753 0 2650 
675 1 -0.00142109 0.00719873 -0.0106013 0.000423 -0.0542955 0.145292 -0.148325 2650 
3035 1 -0.0120767 0.00864296 -0.0108082 0.000116 -0.147222 0.0631952 0.172039 2650 
1590 1 -0.00857465 0.00834357 -0.010539 0.000423 0.0232142 0.0391474 0.112449 2650 
3727 1 -0.004412 0.008373 -0.010287 4.2e-05 0 -0.011753 0 2650 
1935 1 -0.00465924 0.00866857 -0.0106789 0.000116 -0.0496311 0.00727001 0.00060962 2650 
3456 1 -0.00347015 0.0084874 -0.0107599 0.000423 -0.000997028 -0.0111859 -0.00366568 2650 
1010 1 -0.011662 0.009631 -0.010903 0.000423 0 -0.011753 0 2650 
2097 1 -0.00889 0.010187 -0.010395 0.000656 0 -0.011753 0 2650 
3132 1 -0.007716 0.009694 -0.01033 0.000116 0 -0.011753 0 2650 
89 1 -0.003936 0.010239 -0.010466 0.000116 0 -0.011753 0 2650 
1376 1 -0.009927 0.010933 -0.010971 0.000116 0 -0.011753 0 2650 
2759 1 -0.011495 0.011187 -0.010915 0.000656 0 -0.011753 0 2650 
2261 1 -0.007381 0.011284 -0.010514 0.000116 0 -0.011753 0 2650 
233 1 -0.004974 0.01152 -0.010958 0.000423 0 -0.011753 0 2650 
4167 1 -0.003538 0.011627 -0.010916 0.000656 0 -0.011753 0 2650 
2260 1 -0.008542 0.011905 -0.010892 0.000116 0 -0.011753 0 2650 
1802 1 -0.00462683 0.0123 -0.0103069 0.000423 0.006039 -0.000938058 -0.0134839 2650 
499 1 -0.011613 0.012655 -0.010379 0.000116 0 -0.011753 0 2650 
1754 1 -0.008854 0.012761 -0.010611 4.2e-05 0 -0.011753 0 2650 
1913 1 -0.008189 0.012895 -0.010954 0.000423 0 -0.011753 0 2650 
3767 1 -0.006013 0.01338 -0.010843 0.000423 0 -0.011753 0 2650 
3899 1 -0.004387 0.012779 -0.010427 0.000116 0 -0.011753 0 2650 
3784 1 -0.00986881 0.0134963 -0.0106568 0.000116 -0.0748727 0.0872127 -0.0809338 2650 
3595 1 -0.007357 0.013464 -0.010628 0.000116 0 -0.011753 0 2650 
963 1 -0.000669 0.013443 -0.010387 0.000116 0 -0.011753 0 2650 
4365 1 -0.004727 0.0182791 -0.0104281 0.000116 -0.0372545 0.279327 0.100572 2650 
817 1 -0.067918 -0.00583039 -0.00944714 0.000423 -0.306605 -0.0862812 3.23169 2650 
1016 1 -0.0108843 -0.00609946 -0.00995445 0.000423 -1.34394 -0.539959 -1.36706 2650 
3640 1 -0.00944801 -0.00159882 -0.0100026 0.000423 0.0106565 -0.0526658 0.0459604 2650 
3933 1 -0.006596 -0.002303 -0.009623 0.000116 0 -0.011753 0 2650 
417 1 -0.004944 -0.000936997 -0.009884 0.000116 0 -0.011753 0 2650 
939 1 -0.001916 -0.001247 -0.009682 0.000116 0 -0.011753 0 2650 
1630 1 -0.00227 -0.001182 -0.00958 0.000116 0 -0.011753 0 2650 
3460 1 -0.013084 -7.69965e-05 -0.009951 0.000116 0 -0.011753 0 2650 
4306 1 -0.0127125 -0.000636817 -0.0101434 0.000423 -0.11234 0.0471428 -0.0463662 2650 
250 1 -0.0116433 -0.000453628 -0.0100081 0.000423 -0.0752338 -0.0500743 0.0499866 2650 
2778 1 -0.0122115 0.000144463 -0.00980245 0.000423 -0.0635235 -0.00673883 -0.00211652 2650 
2219 1 -0.00858039 0.000372707 -0.00974679 0.000423 -0.00486247 0.0285158 -0.118086 2650 
1562 1 -0.002141 0.000588003 -0.010154 0.000423 0 -0.011753 0 2650 
3866 1 -0.0127892 0.00121966 -0.0101721 0.000423 -0.0847437 0.0104294 0.016212 2650 
1750 1 -0.0118055 0.000837184 -0.00984315 4.2e-05 -0.0339763 -0.0109217 0.0389988 2650 
3264 1 -0.003542 0.001017 -0.010108 0.000116 0 -0.011753 0 2650 
800 1 -0.00114 0.001307 -0.009738 0.000423 0 -0.011753 0 2650 
2164 1 -0.0129927 0.00158399 -0.00975301 0.000116 -0.0511347 0.0307286 0.0470238 2650 
2975 1 -0.0117518 0.00209137 -0.00997295 0.000656 0.000290253 0.0199006 0.0150394 2650 
4374 1 -0.008921 0.002201 -0.009568 4.2e-05 0 -0.011753 0 2650 
3250 1 -0.008233 0.002174 -0.010036 0.000116 0 -0.011753 0 2650 
3135 1 -0.00038 0.001983 -0.010152 0.000116 0 -0.011753 0 2650 
3832 1 -0.01255 0.002435 -0.009616 4.2e-05 0 -0.011753 0 2650 
3324 1 -0.0117551 0.0037543 -0.00961057 0.000423 -0.0200385 -0.00420528 -0.0127862 2650 
1977 1 -0.006037 0.003444 -0.009842 4.2e-05 0 -0.011753 0 2650 
364 1 -0.008943 0.004404 -0.009746 0.000423 0 -0.011753 0 2650 
3235 1 -0.00665893 0.00429139 -0.0102161 0.000423 -0.00964959 -0.00505816 0.00778247 2650 
3790 1 -0.012918 0.005375 -0.010098 0.000116 0 -0.011753 0 2650 
3031 1 -0.011934 0.004944 -0.00971 0.000116 0 -0.011753 0 2650 
3116 1 -0.01058 0.005445 -0.009568 0.000423 0 -0.011753 0 2650 
2474 1 -0.001928 0.004788 -0.009724 0.000423 0 -0.011753 0 2650 
4256 1 -0.007946 0.006138 -0.010197 0.000116 0 -0.011753 0 2650 
3364 1 -0.006241 0.006237 -0.010015 0.000116 0 -0.011753 0 2650 
1584 1 -0.00464713 0.00658487 -0.0101943 0.000423 0.0425069 -0.0208159 -0.144634 2650 
1310 1 -0.011355 0.007497 -0.010263 4.2e-05 0 -0.011753 0 2650 
2789 1 -0.00188314 0.00780831 -0.00953654 0.000423 0.0240757 -0.00288111 -0.0483737 2650 
3071 1 -0.009089 0.008302 -0.009836 4.2e-05 0 -0.011753 0 2650 
2581 1 -0.004751 0.009299 -0.01 0.000423 0 -0.011753 0 2650 
2344 1 -0.001557 0.0102 -0.009839 0.000423 0 -0.011753 0 2650 
3361 1 -5.4e-05 0.010449 -0.010103 0.000116 0 -0.011753 0 2650 
301 1 -0.005514 0.011338 -0.009906 0.000116 0 -0.011753 0 2650 
4179 1 -0.00498312 0.0117312 -0.00977333 0.000423 -0.0169454 -0.0211006 -0.037592 2650 
660 1 -0.002925 0.011779 -0.009723 4.2e-05 0 -0.011753 0 2650 
1087 1 -0.005985 0.012591 -0.009545 0.000116 0 -0.011753 0 2650 