ITEM: TIMESTEP
9491442
ITEM: NUMBER OF ATOMS
4347
ITEM: BOX BOUNDS ff ff ff
-0.15 0.15
-0.15 0.06
-0.15 0.15
ITEM: ATOMS id type x y z radius vx vy vz density 
3753 1 -0.00995595 -0.0543868 -0.0678509 0.000423 -6.83113 -0.0922944 1.00695 2650 
8 1 -0.0141164 -0.0479173 -0.0668727 0.000656 -9.51269 -0.231694 1.96885 2650 
3038 1 -0.0274199 -0.0584295 -0.0631914 0.000116 -5.37961 -0.0426879 2.31938 2650 
1314 1 -0.0284033 -0.0602926 -0.0628364 4.2e-05 -6.7017 -1.94864 3.03379 2650 
3331 1 -0.0466921 -0.0537242 -0.0502278 0.000423 -4.67863 -0.0471192 4.33514 2650 
1550 1 -0.0497142 -0.0451169 -0.0469006 0.000656 -4.96034 -0.218974 5.27765 2650 
3840 1 -0.0541002 -0.0468062 -0.0417581 0.000656 -4.92356 -0.110094 6.39675 2650 
4009 1 -0.0655841 -0.0465964 -0.0210646 0.000116 -1.83006 -0.301942 5.7113 2650 
312 1 -0.0658897 -0.0547095 -0.0200901 0.000116 -1.89733 0.584924 6.23735 2650 
669 1 -0.046837 -0.0600691 0.0497726 0.000656 5.38332 -0.00754736 5.09355 2650 
2317 1 -0.0410122 -0.0470592 0.0546743 0.000656 6.85505 0.00830906 5.13718 2650 
3219 1 -0.0358143 -0.0598008 0.0584719 0.000423 3.63422 -0.082029 2.23178 2650 
1856 1 -0.0285543 -0.0512961 0.0626875 0.000116 4.87146 0.106853 2.17511 2650 
3534 1 -0.0209277 -0.0455695 0.0653071 0.000423 8.37345 -0.129599 2.68826 2650 
4035 1 -0.0174403 -0.0456048 0.0666395 0.000116 7.70956 0.196803 2.02756 2650 
4308 1 -0.0111726 -0.0450042 0.0676617 0.000423 7.42796 -0.0691019 1.20611 2650 
4255 1 -0.0056564 -0.0480013 0.0686518 0.000116 7.14628 -0.0988116 0.591123 2650 
51 1 -0.00746374 -0.0465485 0.0681706 0.000423 6.81971 0.0818379 0.724026 2650 
1207 1 -0.000182534 -0.0145443 -0.0689576 4.2e-05 -8.40543 0.424306 0.0136581 2650 
3679 1 -0.00316511 -0.0094673 -0.0688026 0.000116 -5.78623 -0.46274 0.22642 2650 
3508 1 -0.00239317 -0.00554595 -0.0689091 4.2e-05 -3.2489 -0.0976721 -0.0730728 2650 
1646 1 -0.00426558 -0.00546152 -0.068824 4.2e-05 -5.641 0.336845 0.211539 2650 
3472 1 -0.00475166 -0.00458984 -0.0687151 0.000116 -5.0595 -0.0983289 0.362745 2650 
1535 1 -0.0060032 -4.20965e-05 -0.0686958 4.2e-05 -8.0075 0.00284185 0.700735 2650 
4360 1 -0.00505766 -0.000116091 -0.0686979 0.000116 -8.00006 0.000100374 0.591684 2650 
2823 1 -0.00153412 -0.00011611 -0.0688667 0.000116 -8.08986 0.00139844 0.17959 2650 
2546 1 -0.000284457 -0.029774 -0.0685733 0.000423 -6.99814 0.0396014 0.0483799 2650 
4028 1 -0.00693711 -0.0283676 -0.06851 0.000116 -7.3001 -0.380845 0.795475 2650 
4087 1 -0.00743445 -0.0234112 -0.0681662 0.000423 -7.10393 -0.114182 0.797546 2650 
2098 1 -0.0026941 -0.0218346 -0.0682926 0.000656 -7.55444 -0.0499655 0.286045 2650 
1461 1 -0.00814465 -0.0209007 -0.0680938 0.000423 -7.13823 -0.0778195 0.94335 2650 
1336 1 -0.00755052 -0.019064 -0.0681542 0.000423 -6.89042 0.150801 0.818083 2650 
1994 1 -0.000211143 -0.0195705 -0.0685773 0.000423 -6.58972 -0.0171171 0.0161257 2650 
2905 1 -0.00871371 -0.0165923 -0.068021 0.000423 -7.09393 -0.164484 0.918997 2650 
286 1 -0.0114199 -0.0124328 -0.0679307 0.000116 -5.59852 -0.478319 0.934269 2650 
2269 1 -0.00771568 -0.00613025 -0.0684434 0.000116 -4.78347 -0.120649 0.752287 2650 
4362 1 -0.0111483 -0.00423258 -0.0679756 0.000116 -3.19858 -0.0271776 0.509724 2650 
615 1 -0.00587762 -0.000116116 -0.0686326 0.000116 -8.0011 0.0045644 0.681448 2650 
427 1 -0.0127593 -0.0247479 -0.0676921 0.000116 -6.73809 -0.02618 1.25868 2650 
367 1 -0.0135654 -0.0232834 -0.0672229 0.000423 -7.13378 0.117856 1.43501 2650 
1528 1 -0.011844 -0.0200579 -0.0678579 0.000116 -3.76915 -0.984879 0.684296 2650 
3974 1 -0.0103903 -0.0152777 -0.0677858 0.000423 -6.83226 -0.0806743 1.07143 2650 
3782 1 -0.0106785 -0.0122164 -0.0677408 0.000423 -5.41889 -0.140807 0.856012 2650 
1602 1 -0.0124367 -0.0108868 -0.067752 0.000116 -5.50694 -0.0527765 1.00556 2650 
1454 1 -0.0111249 -0.0108767 -0.0676696 0.000423 -5.20446 0.00397711 0.910817 2650 
2620 1 -0.0118608 -0.00968326 -0.067855 0.000116 -5.18538 -0.446749 0.90139 2650 
3566 1 -0.0131267 -0.00743774 -0.0676215 0.000116 -5.00362 -0.556157 0.968744 2650 
3693 1 -0.00338001 -0.00602797 -0.0672369 0.000116 -3.19197 -0.18926 -1.34103 2650 
4377 1 -0.0179554 -0.0394078 -0.0665788 4.2e-05 -6.4066 -0.162806 1.7246 2650 
4150 1 -0.0170517 -0.0191743 -0.0667399 0.000116 -4.65948 -0.414609 1.17985 2650 
1404 1 -0.0185506 -0.00699027 -0.0663397 0.000116 -3.53275 -0.200225 0.986636 2650 
4251 1 -0.0187836 -0.021643 -0.0662732 0.000116 -6.14955 0.234835 1.74258 2650 
1616 1 -0.0206152 -0.0173394 -0.0657266 0.000116 -4.21977 -0.570074 1.32617 2650 
295 1 -0.0205914 -0.0122435 -0.0657347 0.000116 -4.078 -0.30337 1.2659 2650 
2376 1 -0.0198316 -0.000116024 -0.0659674 0.000116 -4.77996 -0.000124369 1.43197 2650 
2947 1 -0.0196091 -0.000116008 -0.066034 0.000116 -4.7852 0.00119095 1.41653 2650 
2690 1 -0.0211921 -0.0303705 -0.0652221 0.000423 -6.21198 -0.18973 2.01148 2650 
811 1 -0.0212387 -0.0249656 -0.0652047 0.000423 -6.49489 0.150125 2.13252 2650 
1968 1 -0.022425 -0.0200607 -0.0651319 0.000116 -5.23152 0.93721 1.8134 2650 
3583 1 -0.0214021 -0.0176586 -0.0654745 0.000116 -4.8154 -0.629335 1.5667 2650 
453 1 -0.0206602 -0.0168177 -0.0653914 0.000423 -4.0198 -0.389787 1.30094 2650 
843 1 -0.0225029 -0.0145194 -0.0651036 0.000116 -5.18671 0.694389 1.80886 2650 
977 1 -0.0230299 -0.00186387 -0.0649194 0.000116 -5.09791 0.000323393 1.79616 2650 
2314 1 -0.0232783 -0.0440104 -0.0642598 0.000656 -7.20805 0.212778 2.63743 2650 
3227 1 -0.0245192 -0.0208702 -0.0640455 0.000423 -6.59711 0.0570424 2.54857 2650 
1387 1 -0.0242396 -0.0169917 -0.0644777 0.000116 -5.78416 0.319419 2.17298 2650 
4007 1 -0.0241893 -0.00841523 -0.0644965 0.000116 -3.05104 -0.267837 1.09857 2650 
2457 1 -0.0249476 -0.027936 -0.0638778 0.000423 -6.82506 -0.0625613 2.67524 2650 
3252 1 -0.0260768 -0.0273059 -0.0637469 0.000116 -6.14422 -0.306302 2.47484 2650 
2042 1 -0.0270155 -0.023288 -0.0633628 0.000116 -4.20487 0.926808 1.79526 2650 
3168 1 -0.0270836 -0.019784 -0.0633362 0.000116 -4.98229 -0.324843 2.13888 2650 
3479 1 -0.0264798 -0.0186818 -0.0635901 0.000116 -6.25042 0.0365894 2.60413 2650 
734 1 -0.0288503 -0.0257435 -0.0625405 0.000116 -5.09458 0.455978 2.28532 2650 
138 1 -0.0279455 -0.0140963 -0.0626262 0.000423 -4.63931 -0.478307 1.9688 2650 
2982 1 -0.028201 -0.0103476 -0.0624994 0.000423 -4.78725 -0.334155 2.04683 2650 
2130 1 -0.0278384 -0.00792572 -0.0626702 0.000423 -2.90789 -0.181151 1.08794 2650 
689 1 -0.0293975 -0.0371634 -0.0619472 0.000423 -6.85592 0.00442001 3.25686 2650 
4101 1 -0.0292499 -0.0291305 -0.062003 0.000423 -6.6517 0.426956 3.13111 2650 
2685 1 -0.0294757 -0.0273104 -0.0618984 0.000423 -6.32195 0.0774789 3.01508 2650 
1183 1 -0.0307511 -0.00547933 -0.0616354 0.000116 -5.01597 -0.0384207 2.54616 2650 
1520 1 -0.0311887 -0.0360009 -0.0614182 0.000116 -6.67512 -0.0900085 3.37206 2650 
935 1 -0.0307706 -0.0221616 -0.0612846 0.000423 -6.29818 0.0139865 3.23794 2650 
2848 1 -0.0313992 -0.0080675 -0.0613931 4.2e-05 -6.77928 0.170049 3.46066 2650 
762 1 -0.0317537 -0.000167872 -0.0612119 4.2e-05 -6.91157 -0.176934 3.58968 2650 
4036 1 -0.0327976 -0.0229371 -0.0605749 0.000116 -6.75583 -0.345826 3.66452 2650 
2361 1 -0.0324172 -0.0236567 -0.0604322 0.000423 -6.16665 -0.0776471 3.28709 2650 
336 1 -0.0334408 -0.0350106 -0.0596057 0.000656 -6.49124 -0.0666353 3.67166 2650 
1794 1 -0.0344918 -0.0342144 -0.0592719 0.000423 -6.44936 0.129743 3.76618 2650 
3356 1 -0.0343186 -0.0182603 -0.0597264 0.000116 -4.40596 -0.359931 2.53167 2650 
4048 1 -0.0350819 -0.0120852 -0.0593672 4.2e-05 -5.46801 1.20512 3.2245 2650 
807 1 -0.0345934 -0.004595 -0.0592138 0.000423 -5.10386 0.363488 3.00035 2650 
1135 1 -0.0347047 -0.0444902 -0.0591436 0.000423 -6.01646 -0.00890498 3.57661 2650 
4106 1 -0.035185 -0.0244714 -0.0588636 0.000423 -6.09785 -0.109364 3.64067 2650 
3878 1 -0.0356259 -0.0230293 -0.0585982 0.000423 -6.06279 -0.117522 3.74168 2650 
2100 1 -0.0353112 -0.0131174 -0.0585177 0.000656 -4.31258 -0.158734 2.55033 2650 
2900 1 -0.0364094 -0.0114117 -0.0581145 0.000423 -5.06398 0.269703 3.17651 2650 
636 1 -0.0374857 -0.00830145 -0.0577919 0.000116 -6.6515 0.820254 4.31628 2650 
2846 1 -0.0386886 -0.000910868 -0.057082 4.2e-05 -4.31319 -0.192655 2.9078 2650 
555 1 -0.0383645 -0.0389722 -0.0565615 0.000656 -6.41239 0.0204604 4.33695 2650 
3375 1 -0.0400645 -0.0270976 -0.0560347 0.000116 -4.63707 -0.872228 3.30743 2650 
3372 1 -0.0399904 -0.0214495 -0.0560872 0.000116 -5.69718 0.355156 4.05309 2650 
3613 1 -0.0394722 -0.0203832 -0.0565438 4.2e-05 -4.62818 -0.459409 3.22821 2650 
4097 1 -0.0390298 -0.00848952 -0.0563886 0.000423 -2.44002 -0.524154 1.69447 2650 
3390 1 -0.0395374 -0.00466641 -0.0564074 0.000116 -4.90515 -0.243193 3.45217 2650 
2038 1 -0.0401756 -0.0011266 -0.0559544 0.000116 -4.32179 -0.153711 3.09666 2650 
786 1 -0.0408289 -0.0221738 -0.0550996 0.000423 -5.44074 0.15492 4.02872 2650 
2349 1 -0.0411889 -0.0209433 -0.0548316 0.000423 -5.57391 0.262202 4.17739 2650 
2607 1 -0.0417278 -0.00910818 -0.0548071 0.000116 -3.66097 -0.0463763 2.77572 2650 
2060 1 -0.0424672 -0.0252898 -0.0542362 0.000116 -5.5159 0.26301 4.31644 2650 
578 1 -0.0422112 -0.025734 -0.054048 0.000423 -5.69476 0.170423 4.43539 2650 
3926 1 -0.0439268 -0.0306457 -0.0530618 0.000116 -5.42511 0.537088 4.49579 2650 
1296 1 -0.0435555 -0.0264746 -0.0533662 0.000116 -5.57593 0.830201 4.5511 2650 
2664 1 -0.0432722 -0.0214047 -0.0532021 0.000423 -5.06716 -0.395812 4.12393 2650 
209 1 -0.0437667 -0.0177867 -0.0531917 0.000116 -4.78487 -0.111145 3.9423 2650 
2234 1 -0.0432672 -0.0168945 -0.0532051 0.000423 -4.69944 -0.224713 3.84946 2650 
378 1 -0.044145 -0.0259243 -0.05248 0.000423 -5.34793 -0.260611 4.48118 2650 
269 1 -0.0439115 -0.021575 -0.0526751 0.000423 -4.94573 -0.837834 4.13605 2650 
1587 1 -0.0440232 -0.0174837 -0.0525809 0.000423 -4.66428 -0.31948 3.91436 2650 
1408 1 -0.044894 -0.000775708 -0.0522449 0.000116 -4.81431 -0.169777 4.14152 2650 
3601 1 -0.0458751 -0.0280934 -0.0513861 0.000116 -5.26899 0.040762 4.71745 2650 
1628 1 -0.0458937 -0.0228724 -0.0513689 0.000116 -4.72375 -0.56078 4.22418 2650 
1634 1 -0.0453295 -0.0224818 -0.0518673 0.000116 -4.6868 -0.524658 4.09059 2650 
3874 1 -0.0450956 -0.0168032 -0.0516637 0.000423 -4.60536 0.152212 3.99983 2650 
1683 1 -0.0447083 -0.0155243 -0.0519982 0.000423 -4.52906 0.311781 3.85102 2650 
3692 1 -0.0453581 -0.0119655 -0.0518405 0.000116 -6.4243 0.924341 5.66292 2650 
1829 1 -0.0448687 -0.00851407 -0.0520432 0.000116 -2.27957 -0.287981 2.57982 2650 
1161 1 -0.045382 -0.00316061 -0.0518196 0.000116 -2.58824 0.142247 2.22353 2650 
3850 1 -0.0461684 -0.0357119 -0.0507093 0.000423 -5.42852 0.080942 4.95077 2650 
1555 1 -0.046735 -0.0363911 -0.0501876 0.000423 -5.36543 0.0536323 4.99799 2650 
3729 1 -0.0464143 -0.0264954 -0.0501701 0.000656 -5.43582 0.00124737 5.01573 2650 
1563 1 -0.0475883 -0.0297194 -0.0493798 0.000423 -5.27083 -0.0882197 5.07461 2650 
1818 1 -0.0484468 -0.0239938 -0.0489685 0.000116 -4.98397 0.239409 4.9152 2650 
2998 1 -0.047947 -0.0242616 -0.0490308 0.000423 -5.01715 0.0449088 4.89649 2650 
2000 1 -0.047908 -0.0203215 -0.0490695 0.000423 -4.80808 -0.439605 4.71401 2650 
4210 1 -0.0483303 -0.0297613 -0.0486535 0.000423 -5.19363 -0.0252654 5.17882 2650 
4229 1 -0.0485676 -0.0190912 -0.0488458 0.000116 -4.2721 -0.0288126 4.2389 2650 
1136 1 -0.0494443 -0.023969 -0.0475208 0.000423 -5.06726 -0.034375 5.24844 2650 
3708 1 -0.0497835 -0.0164183 -0.0476031 0.000116 -3.85024 -0.201923 4.04042 2650 
479 1 -0.0500159 -0.0242441 -0.0469187 0.000423 -5.04763 0.10142 5.38017 2650 
1946 1 -0.0506953 -0.00846665 -0.0466352 0.000116 -2.25506 -0.152995 2.50259 2650 
3174 1 -0.0513215 -0.0315172 -0.0460385 4.2e-05 -4.48876 0.493471 4.91058 2650 
618 1 -0.0509276 -0.029477 -0.0463785 0.000116 -5.12995 -0.135427 5.52391 2650 
486 1 -0.0506939 -0.0232283 -0.0461837 0.000423 -5.11008 0.206739 5.56362 2650 
2232 1 -0.0515251 -0.0280246 -0.0452032 0.000423 -4.96782 0.0520283 5.56398 2650 
1363 1 -0.0513536 -0.0260605 -0.0454318 0.000423 -4.77848 -0.00321222 5.35603 2650 
3084 1 -0.0512457 -0.0230206 -0.0452205 0.000656 -4.94824 0.000202296 5.64467 2650 
2996 1 -0.0512844 -0.0117387 -0.0455286 0.000423 -3.86684 0.0403753 4.36286 2650 
410 1 -0.052028 -0.00812261 -0.0451448 0.000116 -3.60487 -0.472303 4.17597 2650 
992 1 -0.0519513 -0.0352297 -0.0443634 0.000656 -4.78814 -0.128508 5.5941 2650 
2053 1 -0.0522301 -0.0286898 -0.0448566 0.000116 -4.2196 0.163427 4.86186 2650 
2112 1 -0.052343 -0.0218285 -0.0443066 0.000423 -4.72904 -0.158317 5.61901 2650 
4124 1 -0.0531298 -0.034985 -0.043812 0.000116 -4.34793 0.151141 5.39588 2650 
3531 1 -0.0530961 -0.0277231 -0.0433633 0.000423 -4.47447 -0.0796463 5.59742 2650 
3642 1 -0.0530982 -0.0263323 -0.0433735 0.000423 -4.40239 -0.0255696 5.53895 2650 
2343 1 -0.05268 -0.0257934 -0.0438783 0.000423 -4.48718 -0.0428581 5.44195 2650 
3319 1 -0.0534246 -0.0368081 -0.0429905 0.000423 -4.85511 -0.248271 6.05666 2650 
3024 1 -0.053612 -0.0201684 -0.0432522 0.000116 -5.78294 -0.258194 7.17025 2650 
228 1 -0.0536519 -0.0242751 -0.0423384 0.000656 -4.53831 0.00482665 5.72849 2650 
429 1 -0.0546621 -0.00889183 -0.041918 0.000116 -2.6761 -0.142061 3.53358 2650 
2192 1 -0.0544893 -4.20567e-05 -0.0422621 4.2e-05 -2.10713 -5.20787e-05 2.70125 2650 
2166 1 -0.0551398 -0.0194444 -0.0412865 0.000116 -3.8448 -0.150394 5.14598 2650 
29 1 -0.0545457 -0.0179942 -0.0415655 0.000423 -4.17646 0.139709 5.50511 2650 
4220 1 -0.055762 -0.00528389 -0.040443 0.000116 -2.86149 0.349236 3.91813 2650 
1107 1 -0.0557662 -0.033661 -0.0395139 0.000656 -4.40796 -0.0363546 6.26601 2650 
715 1 -0.0558222 -0.00786648 -0.039836 0.000423 -2.15224 -0.121357 3.06785 2650 
483 1 -0.0563864 -0.037555 -0.039031 0.000423 -4.45637 -0.00476292 6.42956 2650 
1655 1 -0.0567995 -0.0406471 -0.0380123 0.000656 -4.45429 -0.0522179 6.60384 2650 
14 1 -0.0568964 -0.0280073 -0.0382814 0.000423 -3.771 0.0227007 5.65353 2650 
3058 1 -0.0571373 -0.00388562 -0.0384752 0.000116 -1.80659 0.00720218 2.6461 2650 
3514 1 -0.0572037 -0.0225165 -0.0374 0.000656 -4.26708 -0.175809 6.49259 2650 
3543 1 -0.0577162 -0.0215999 -0.0370359 0.000423 -4.18476 -0.115311 6.50675 2650 
2822 1 -0.058093 -0.0024376 -0.0370161 0.000116 -3.98952 0.0010914 6.27183 2650 
849 1 -0.0586633 -0.000645197 -0.0361052 0.000116 -2.56987 0.0231884 4.1645 2650 
2663 1 -0.0594016 -0.0329151 -0.0342703 0.000423 -3.5763 -0.168711 6.16717 2650 
3482 1 -0.0603824 -0.0274667 -0.0331515 0.000116 -3.39355 0.294653 6.19477 2650 
78 1 -0.0600807 -0.0263238 -0.0336951 0.000116 -4.08145 -0.517989 7.28404 2650 
1068 1 -0.0600717 -0.00995658 -0.0337116 0.000116 -3.14327 0.191249 5.61325 2650 
2430 1 -0.0601534 -0.0315643 -0.0324454 0.000656 -3.37903 -0.0201488 6.28535 2650 
3376 1 -0.0604523 -0.0224408 -0.0330223 0.000116 -3.43214 -0.0048968 6.30003 2650 
1560 1 -0.0602478 -0.0220058 -0.0327592 0.000423 -3.48383 -0.0179519 6.40045 2650 
3066 1 -0.0606004 -0.0132813 -0.0329065 4.2e-05 -3.3491 0.199531 6.19272 2650 
3118 1 -0.06087 -0.0316843 -0.0315879 0.000423 -3.32537 -0.165131 6.36421 2650 
27 1 -0.0606633 -0.0307099 -0.0319823 0.000423 -3.31832 -0.0915003 6.27887 2650 
1056 1 -0.0613323 -0.0302381 -0.0313587 0.000116 -3.23559 0.0192616 6.31623 2650 
3443 1 -0.0612494 -0.0171553 -0.0308466 0.000423 -3.21356 -0.0319144 6.39121 2650 
1060 1 -0.06192 -0.0282879 -0.0301818 0.000116 -3.58033 -0.381567 7.35173 2650 
3039 1 -0.0616626 -0.00209149 -0.0307035 0.000116 -2.69718 0.192002 5.43024 2650 
4011 1 -0.0621487 -0.0360192 -0.0297079 0.000116 -3.16387 -0.0861097 6.60219 2650 
1669 1 -0.0617485 -0.0275954 -0.0298346 0.000423 -3.22844 0.0993071 6.72171 2650 
833 1 -0.0620821 -0.0224153 -0.0298462 0.000116 -3.27728 0.130935 6.80014 2650 
1325 1 -0.0621201 -0.0255529 -0.0284991 0.000656 -3.06575 -0.0794941 6.69641 2650 
710 1 -0.0622546 -0.0243111 -0.028763 0.000423 -3.12298 0.0701792 6.85791 2650 
3978 1 -0.0623883 -0.0228611 -0.0284715 0.000423 -3.1617 0.146979 6.92499 2650 
1468 1 -0.0623843 -0.00302018 -0.0284792 0.000423 -2.71622 -0.119598 5.94867 2650 
4095 1 -0.0625912 -0.0239829 -0.0280218 0.000423 -3.09173 -0.00412879 6.916 2650 
287 1 -0.0634704 -0.0428388 -0.0267678 0.000116 -3.14302 0.107545 7.47193 2650 
2183 1 -0.0634618 -0.00165082 -0.0267878 0.000116 -2.44544 0.420643 5.83376 2650 
3041 1 -0.0636684 -0.0278109 -0.0262937 0.000116 -2.57122 0.372917 6.20699 2650 
146 1 -0.0632051 -0.026755 -0.0266092 0.000423 -2.90578 0.0275061 6.94658 2650 
406 1 -0.0634668 -0.0202036 -0.0266048 0.000116 -5.21897 0.183767 10.2854 2650 
1317 1 -0.0641803 -0.0416081 -0.0252204 4.2e-05 -2.33882 0.732736 5.9411 2650 
1104 1 -0.0633297 -0.0261831 -0.0257022 0.000656 -2.8454 -0.019693 6.95082 2650 
2800 1 -0.06355 -0.024004 -0.0257745 0.000423 -2.78085 -0.129268 6.84316 2650 
2429 1 -0.0633596 -0.015162 -0.0256292 0.000656 -2.11262 0.136231 5.15934 2650 
2711 1 -0.0639834 -0.00525501 -0.0255173 0.000116 -2.37984 0.432873 5.92983 2650 
3360 1 -0.0641377 -0.0358616 -0.0251265 0.000116 -2.61751 -0.463693 6.64768 2650 
1383 1 -0.0641722 -0.0130357 -0.0250369 0.000116 -2.34503 0.797976 5.97106 2650 
2898 1 -0.0640099 -0.0133463 -0.0246103 0.000423 -2.18656 0.378184 5.76219 2650 
3577 1 -0.064615 -0.0218228 -0.0238723 0.000116 -2.59369 0.00757833 7.01047 2650 
1364 1 -0.0640915 -0.0118366 -0.0243962 0.000423 -2.16832 0.539768 5.73575 2650 
4023 1 -0.0644363 -0.0048037 -0.0243507 0.000116 -1.76064 -0.175729 4.65754 2650 
1016 1 -0.064621 -0.0336352 -0.022958 0.000423 -2.27596 0.0343996 6.43455 2650 
3602 1 -0.064781 -0.0308834 -0.0234187 0.000116 -2.70539 0.33038 7.4744 2650 
3261 1 -0.0647734 -0.025287 -0.0234392 0.000116 -2.32178 0.581162 6.39572 2650 
175 1 -0.0648242 -0.0238361 -0.0232981 0.000116 -1.99198 -0.72942 5.538 2650 
4164 1 -0.0648641 -0.00561496 -0.0234062 4.2e-05 -1.63005 -0.260959 4.49486 2650 
711 1 -0.0647652 -0.015029 -0.0225478 0.000423 -1.9862 -0.208805 5.75285 2650 
3418 1 -0.0649308 -0.0134776 -0.0220673 0.000423 -2.07836 0.0680437 6.09387 2650 
3265 1 -0.0653312 -0.000116006 -0.0218361 0.000116 -1.83143 0.000762987 5.51675 2650 
947 1 -0.0657682 -0.0307361 -0.0204852 0.000116 -2.10281 -0.0780769 6.73046 2650 
2398 1 -0.0656258 -0.0147421 -0.0209353 0.000116 -2.09359 0.487147 6.54335 2650 
2014 1 -0.0654087 -0.0131724 -0.0206088 0.000423 -1.98341 0.055241 6.32349 2650 
1372 1 -0.0655922 -0.0310246 -0.0200162 0.000423 -2.04485 -0.0603459 6.7318 2650 
2576 1 -0.0656769 -0.0281951 -0.0197347 0.000423 -2.02366 0.0472113 6.71437 2650 
1752 1 -0.065965 -0.0178248 -0.0200942 4.2e-05 -1.92228 0.105483 6.30433 2650 
632 1 -0.0658831 -0.0153425 -0.0201109 0.000116 -2.25672 0.193466 7.44951 2650 
4250 1 -0.0659527 -0.0104723 -0.0198831 0.000116 -1.66582 0.280969 5.49175 2650 
3725 1 -0.0659373 -0.00915591 -0.0201874 4.2e-05 -1.19881 -0.207063 3.91316 2650 
2939 1 -0.0206418 -0.00377593 -0.0199393 0.000116 -2.85494 -0.0810882 -2.74916 2650 
1735 1 -0.0658189 -0.00011603 -0.0203192 0.000116 -1.57638 -0.00223407 5.15709 2650 
2396 1 -0.0658878 -0.000115976 -0.0200941 0.000116 -1.57688 0.000639052 5.15289 2650 
3734 1 -0.0656806 -0.0185953 -0.0189016 0.000656 -1.89225 -0.16382 6.45397 2650 
1002 1 -0.0658861 -0.022831 -0.0181716 0.000656 -1.91371 0.00422738 7.06008 2650 
854 1 -0.066454 -0.0220238 -0.0181346 0.000116 -1.8169 0.176715 6.63709 2650 
2702 1 -0.0666048 -0.0307424 -0.017577 0.000116 -1.72423 0.129957 6.4676 2650 
3633 1 -0.0663516 -0.0223205 -0.0173328 0.000423 -1.83651 0.256238 6.99993 2650 
822 1 -0.0662348 -0.0182942 -0.0177734 0.000423 -1.72676 -0.0123397 6.56881 2650 
3328 1 -0.0664931 -0.0295077 -0.0167841 0.000423 -1.6648 0.328028 6.51575 2650 
2002 1 -0.0664544 -0.0242323 -0.0169338 0.000423 -1.72321 0.121911 6.79884 2650 
2172 1 -0.000691142 -0.00112482 -0.0166494 0.000116 0.0682862 0.00746542 -0.00852403 2650 
606 1 -0.000183 0.00177036 -0.016592 0.000116 0 -0.011753 0 2650 
2520 1 -0.000337029 0.0048824 -0.016885 4.2e-05 0.00318265 0.000380138 0.00682554 2650 
2497 1 -0.000978394 0.0254826 -0.0166832 0.000116 0.293564 0.092722 -0.0110309 2650 
2835 1 -0.0669796 -0.0374849 -0.0160858 0.000116 -2.11642 0.542824 8.80479 2650 
1838 1 -0.0669856 -0.0300131 -0.016064 0.000116 -1.6111 0.0734545 6.72473 2650 
4021 1 -0.0669465 -0.0294248 -0.0162251 0.000116 -1.55957 -0.0570614 6.38509 2650 
121 1 -0.0664174 -0.025959 -0.0161244 0.000656 -1.7609 -0.00845069 7.25507 2650 
1915 1 -0.0666512 -0.0248809 -0.0161423 0.000423 -1.63502 0.108827 6.84185 2650 
1813 1 -0.0666427 -0.0213099 -0.0161767 0.000423 -1.76062 0.112277 7.29627 2650 
2013 1 -0.00293699 0.00300943 -0.0159312 0.000423 -0.00154235 0.00221798 0.00156406 2650 
2301 1 -0.00429164 0.00368082 -0.016243 4.2e-05 -0.00116259 -0.0070103 0.00459775 2650 
1679 1 -0.00408115 0.00428625 -0.0158761 0.000423 -0.00453172 0.0157125 0.00260684 2650 
2283 1 -0.00352542 0.00410508 -0.0164116 0.000116 -0.00010552 0.00956354 0.000789399 2650 
4227 1 -0.000503951 0.00449329 -0.0159676 0.000116 0.00143204 -0.0228975 -0.0290312 2650 
1611 1 -0.00391169 0.00494859 -0.0160457 0.000116 0.0513704 -0.0152435 0.0155029 2650 
978 1 -0.00292137 0.00640605 -0.0163583 0.000116 0.0180122 -0.00353228 -0.00159853 2650 
3934 1 -0.001977 0.00653236 -0.016218 0.000116 0 -0.011753 0 2650 
3177 1 -0.000102687 0.00862948 -0.016113 4.2e-05 0.00917698 -0.00185525 -0.00666376 2650 
1483 1 -0.000440799 0.0100019 -0.0162414 0.000423 -0.00134867 0.0112238 -0.0085204 2650 
3007 1 -0.00258231 0.0109504 -0.0159169 0.000423 -0.00754521 0.0118776 -0.00214285 2650 
70 1 -0.00521912 0.0117072 -0.0158332 0.000116 0.0560864 0.0328811 0.00597028 2650 
371 1 -0.000479632 0.0112142 -0.0164884 0.000423 0.00531915 0.0198137 0.0114896 2650 
188 1 -0.00245755 0.0124596 -0.0163271 0.000116 -0.0148612 0.0228045 0.00418427 2650 
2713 1 -0.000720602 0.0141921 -0.0161559 0.000116 0.00037122 0.035974 0.00535071 2650 
4234 1 -0.00504844 0.0315818 -0.0160565 0.000116 0.00512064 0.0508026 0.0366661 2650 
66 1 -0.00348911 0.0342523 -0.0162446 0.000116 -0.217432 -0.0137213 0.0406838 2650 
2021 1 -0.000863544 0.0514431 -0.0163989 0.000423 0.167293 -0.0932069 -0.0108047 2650 
476 1 -0.0667702 -0.029735 -0.0156463 0.000423 -1.44252 0.0319155 6.11901 2650 
30 1 -0.00160015 -0.00132545 -0.0157767 0.000423 -0.0136125 -0.0214967 0.00834717 2650 
3599 1 -0.00143742 -0.00139098 -0.0151389 0.000116 0.00758272 -0.00512374 -0.0536854 2650 
2399 1 -0.002418 0.00198436 -0.015541 0.000116 0 -0.011753 0 2650 
3637 1 -0.00509683 0.0036633 -0.0156017 0.000423 -0.00704251 0.0124689 0.006236 2650 
2438 1 -0.00601204 0.00726024 -0.0150945 0.000423 -0.00468347 -0.000292455 -0.00123863 2650 
3830 1 -0.006879 0.00808436 -0.015411 4.2e-05 0 -0.011753 0 2650 
938 1 -0.00147274 0.00990542 -0.0157344 0.000116 -0.00119823 0.000558801 -0.00633771 2650 
2781 1 -0.00610255 0.0107931 -0.0150519 0.000423 -0.00287998 0.011096 -0.0317373 2650 
2969 1 -0.00233026 0.0102941 -0.015071 0.000656 -0.00667616 0.014076 0.00443217 2650 
2793 1 -0.00107551 0.0117512 -0.0152103 0.000423 0.000157206 0.0547174 -0.00166293 2650 
2182 1 -0.0013961 0.0120769 -0.0156774 0.000116 -0.00770269 0.0448602 -0.0445042 2650 
3644 1 -0.0011664 0.0130325 -0.0153702 0.000423 -0.000399523 0.00418678 0.0157329 2650 
2924 1 -0.00676544 0.0152019 -0.0152412 0.000116 -0.0500795 0.0331408 0.0243033 2650 
2466 1 -0.00582428 0.0211625 -0.0152224 0.000423 0.0618857 0.0331724 -0.00268308 2650 
2585 1 -0.000792463 0.0239551 -0.0153171 0.000116 -0.0221426 0.0759057 0.0070692 2650 
2863 1 -0.00348535 0.0515214 -0.0154642 0.000656 0.0828395 0.112062 0.0238951 2650 
1231 1 -0.0669479 -0.0293239 -0.0148658 0.000423 -1.3806 0.118791 6.13036 2650 
4309 1 -0.0670925 -0.0278048 -0.0141997 0.000423 -1.46095 -0.0838644 6.81955 2650 
2967 1 -0.0668645 -0.0199062 -0.0141589 0.000656 -1.71747 0.0090569 8.16823 2650 
856 1 -0.067389 -0.00577313 -0.0142738 0.000116 -1.57213 1.15249 7.40421 2650 
1763 1 -0.00347699 -0.00249515 -0.014753 0.000656 -0.0890582 0.0217677 -0.0881811 2650 
4244 1 -0.00124854 -0.00270471 -0.0147646 0.000116 -0.0436806 -0.00994679 0.0125723 2650 
1053 1 -0.007469 -0.00185764 -0.014946 0.000116 0 -0.011753 0 2650 
736 1 -0.00716057 -0.000946222 -0.0148612 0.000116 -0.0307431 -0.0170391 0.0144389 2650 
509 1 -0.0076108 -0.000454315 -0.0147255 0.000116 -0.00480979 -0.0076817 0.0108723 2650 
1991 1 -0.00751943 0.000277312 -0.0142113 0.000656 -0.019376 -0.00203791 0.00870126 2650 
3239 1 -0.00640668 0.0010796 -0.0142517 0.000116 -0.0248133 -0.00752354 0.0120924 2650 
857 1 -0.0045256 0.00246869 -0.014884 0.000116 -0.0623021 0.0193526 0.00200378 2650 
2474 1 -0.00110275 0.00258864 -0.0143389 0.000423 0.0307748 -0.0136667 -0.043701 2650 
889 1 -0.00237085 0.00396178 -0.0142458 0.000656 0.0239239 0.0130736 -0.0545072 2650 
3365 1 -0.00226689 0.0045896 -0.0147502 0.000116 0.0120999 0.0333262 -0.0498495 2650 
2344 1 -0.000198943 0.00471397 -0.0149408 0.000423 0.0113166 5.02216e-06 -0.0390029 2650 
4300 1 -0.000322629 0.00402993 -0.0143491 0.000423 0.0101839 0.00179298 -0.0226263 2650 
1192 1 -0.00708846 0.00572553 -0.0147552 0.000116 -0.0160738 0.0171838 -0.0228619 2650 
581 1 -0.00562058 0.00805526 -0.0145339 0.000423 0.000441693 0.00100922 0.00165067 2650 
2726 1 -0.000199423 0.00865744 -0.0142282 0.000116 -0.00741369 0.00988612 -0.041436 2650 
233 1 -0.0038395 0.00899301 -0.0148469 0.000423 0.0114684 -0.00558491 0.0116559 2650 
289 1 -0.00315821 0.00973441 -0.014786 0.000116 -0.00850769 0.000708308 0.0302001 2650 
86 1 -0.00408898 0.0103058 -0.0149725 0.000116 -0.0196067 0.0126222 0.000798653 2650 
3500 1 -0.00313462 0.0107317 -0.0148977 4.2e-05 -0.0484689 0.00233787 0.0298831 2650 
3150 1 -0.00134635 0.0105157 -0.014616 0.000116 -0.0182263 -0.0087302 -0.0269448 2650 
1228 1 -0.00178763 0.0121463 -0.0149386 0.000423 -0.0165199 0.0339339 0.00467854 2650 
1839 1 -0.00375126 0.0152974 -0.0145518 0.000116 -0.0676852 0.0211351 0.0188737 2650 
93 1 -0.00865207 0.0179676 -0.014359 0.000116 0.0573325 0.04651 -0.0562898 2650 
1717 1 -0.00331488 0.0274967 -0.014401 0.000116 -0.014717 0.0706098 -0.0348682 2650 
1195 1 -0.00573366 0.0312919 -0.0142949 0.000116 0.0557766 0.0782116 -0.0138054 2650 
3588 1 -0.00761057 0.0421925 -0.0147012 0.000116 0.181107 0.0152304 0.0217687 2650 
4010 1 -0.00773097 0.0422406 -0.0149359 0.000116 0.0373387 0.0604042 0.0259593 2650 
3540 1 -0.0671594 -0.0286439 -0.0138758 0.000423 -1.43985 -0.0710173 6.87287 2650 
1964 1 -0.0675307 -0.0272485 -0.0135846 0.000116 -1.39974 0.265974 6.98473 2650 
1912 1 -0.0671346 -0.0243529 -0.0139901 0.000423 -1.46722 0.122811 6.9565 2650 
34 1 -0.0671846 -0.0211665 -0.0137558 0.000423 -1.59016 -0.662125 7.78302 2650 
4082 1 -0.0671654 -0.0182731 -0.0138453 0.000423 -1.63831 0.520004 7.96322 2650 
2538 1 -0.0669131 -0.0120431 -0.0139256 0.000656 -1.22667 0.0321518 5.73999 2650 
3034 1 -0.0675287 -0.00978925 -0.0135937 0.000116 -1.10419 -0.0843058 5.4676 2650 
2666 1 -0.00440474 -0.0028078 -0.0140957 0.000423 0.0429038 -0.00888448 0.00629481 2650 
3576 1 -0.00329194 -0.00144341 -0.0139872 0.000116 0.0561059 0.00120064 -0.0311085 2650 
2609 1 -0.0086232 0.00132553 -0.0134293 0.000116 0.0165148 -0.0225508 -0.0126409 2650 
2922 1 -0.00767924 0.0013583 -0.0136344 0.000116 -0.00925852 -0.000802711 0.00675368 2650 
150 1 -0.00948776 0.00370016 -0.0134524 0.000423 -0.0332403 0.0236354 0.0259176 2650 
220 1 -0.00339936 0.00337321 -0.0140473 4.2e-05 0.00197382 0.00663681 0.00671825 2650 
2913 1 -0.00938175 0.00409683 -0.0138637 0.000116 -0.0031719 -0.0208365 0.00893463 2650 
3787 1 -0.00672943 0.00407762 -0.0136236 0.000116 -0.0024271 -0.00223267 -0.0195234 2650 
1388 1 -0.00558647 0.00546572 -0.0139538 0.000116 -0.039288 0.0021603 0.0169103 2650 
1288 1 -0.002467 0.00571336 -0.014044 0.000116 0 -0.011753 0 2650 
3515 1 -0.00831428 0.00675234 -0.0139108 0.000656 -0.00454215 -0.00749919 0.00616721 2650 
2918 1 -0.00675252 0.00664903 -0.0134945 0.000116 0.0149777 0.0131491 0.0124233 2650 
963 1 -0.0069406 0.00696781 -0.0134529 0.000116 0.00350227 -0.00324664 0.0156587 2650 
1618 1 -0.00976856 0.00752508 -0.0136644 0.000116 0.0059414 0.00192455 -0.00369393 2650 
1250 1 -0.00883316 0.00766967 -0.013437 0.000423 -0.0126021 -0.0099031 0.00355829 2650 
3364 1 -0.00669738 0.00774547 -0.0136126 0.000116 -0.00179506 0.0163753 -0.0232219 2650 
1769 1 -0.00807801 0.00826139 -0.0139384 0.000656 -0.0137362 -0.00803998 0.00121316 2650 
2313 1 -0.00345578 0.00865486 -0.0138852 0.000656 0.0121795 0.0249345 0.010824 2650 
4190 1 -0.00889775 0.00907712 -0.0138673 0.000423 -0.00788233 0.00684233 0.00501954 2650 
2092 1 -0.0067064 0.00921479 -0.0139741 0.000656 -0.00167296 0.00263094 0.0238503 2650 
1827 1 -0.00507978 0.00905388 -0.0140445 0.000116 0.0445821 -0.0304485 -0.00868089 2650 
1476 1 -0.00739838 0.00994689 -0.0134406 0.000423 -0.00473027 0.00118609 -0.000138689 2650 
1409 1 -0.00044 0.00949336 -0.013868 0.000116 0 -0.011753 0 2650 
2453 1 -0.00610519 0.0109915 -0.0134959 0.000423 0.00287214 0.0261989 -0.0126472 2650 
1802 1 -0.00349417 0.0124117 -0.0134926 0.000423 0.00500259 -0.000364755 -0.0111755 2650 
1617 1 -0.000751161 0.0123422 -0.013423 0.000116 0.00511482 0.0710113 0.047396 2650 
3163 1 -0.00836528 0.0131343 -0.0141547 0.000116 0.00944139 0.0175584 0.0253463 2650 
3838 1 -0.0054616 0.0127353 -0.0138659 0.000656 0.0059045 0.0308137 -0.0288407 2650 
3825 1 -0.00910239 0.0142539 -0.0135141 0.000116 -0.069686 0.0193601 -0.0251245 2650 
949 1 -0.009017 0.0146108 -0.0138934 0.000116 -0.0490041 0.045275 -0.0453717 2650 
4231 1 -0.00164128 0.0183821 -0.013637 0.000116 -0.0134934 0.0153003 0.0304581 2650 
3395 1 -0.00976218 0.0223307 -0.0137923 4.2e-05 -0.293978 -0.201617 0.218389 2650 
148 1 -0.00939641 0.0273615 -0.013552 0.000423 -0.126154 -0.159151 0.0929372 2650 
3933 1 -0.0676731 -0.0179996 -0.0128556 0.000116 -1.29741 0.150824 6.73283 2650 
3817 1 -0.0676643 -0.00243821 -0.0129035 0.000116 -1.00689 -0.156406 5.13059 2650 
3011 1 -0.00130242 -0.00102557 -0.0129684 0.000423 0.0180353 -0.0317081 -0.0392676 2650 
3191 1 -0.00940789 -0.000623015 -0.0129348 0.000656 -0.0183475 -0.00795438 -0.00635009 2650 