ITEM: TIMESTEP
10754808
ITEM: NUMBER OF ATOMS
4331
ITEM: BOX BOUNDS ff ff ff
-0.15 0.15
-0.15 0.06
-0.15 0.15
ITEM: ATOMS id type x y z radius vx vy vz density 
747 1 -0.11731 -0.0275784 -0.0557173 0.000116 -11.0687 -0.810586 1.27924 2650 
4035 1 -0.0972807 -0.0417776 -0.00482059 0.000116 -8.65403 -0.0755733 7.86531 2650 
1206 1 -0.00384793 -0.0451767 -0.0688503 4.2e-05 -7.66665 0.326435 0.423825 2650 
4025 1 -0.033631 -0.0497555 -0.0601168 0.000116 -6.10265 0.270556 3.4048 2650 
2064 1 -0.0355391 -0.051903 -0.0590088 0.000116 -5.98343 -0.0502515 3.59218 2650 
669 1 -0.0395052 -0.061696 -0.0557717 0.000656 -6.73927 0.0317326 4.76454 2650 
1256 1 -0.0470151 -0.0461723 -0.0499254 0.000423 -6.40704 -0.0592223 6.03082 2650 
3391 1 -0.0480214 -0.0472043 -0.049488 4.2e-05 -4.44439 -0.258248 4.30801 2650 
1638 1 -0.0633506 -0.0530032 -0.0270518 0.000116 -2.30192 0.800057 5.43045 2650 
51 1 -0.0679712 -0.0503568 -0.0091096 0.000423 -1.0885 -0.103378 8.09496 2650 
1462 1 -0.0681714 -0.0501803 -0.00746642 0.000423 -0.795322 0.230285 7.37129 2650 
2317 1 -0.067944 -0.0466991 -0.00739924 0.000656 -0.932966 -0.0831216 8.75713 2650 
1903 1 -0.0682589 -0.0460139 -0.00661433 0.000423 -0.82186 0.342407 8.52461 2650 
3181 1 -0.0686808 -0.046192 -0.00599327 4.2e-05 -1.30515 -0.263725 9.72423 2650 
1568 1 -0.068336 -0.0461196 0.00569319 0.000423 0.659463 -0.295728 7.59891 2650 
4288 1 -0.062745 -0.0468132 0.0276771 0.000423 2.99011 -0.0815709 6.84 2650 
3079 1 -0.0616288 -0.0487193 0.029546 0.000656 3.58623 -0.0318329 7.47153 2650 
3409 1 -0.0572625 -0.0516844 0.0373114 0.000656 4.46823 -0.0337025 6.86623 2650 
2578 1 -0.04875 -0.0456869 0.0482323 0.000423 6.0168 0.282881 6.09097 2650 
3570 1 -0.0453659 -0.0594691 0.0518293 0.000116 6.0456 -0.208782 5.29484 2650 
1619 1 -0.0377479 -0.0565261 0.0576203 0.000116 6.239 0.319191 4.09233 2650 
482 1 -0.0240964 -0.0604359 0.0642051 0.000423 6.9645 0.00535455 2.60497 2650 
1865 1 -0.0424349 -0.0153429 -0.127156 4.2e-05 -8.14692 0.46745 -7.09808 2650 
2062 1 -0.00181715 -0.0301827 -0.0688607 0.000116 -7.01139 -0.112834 0.187566 2650 
1051 1 -0.000291632 -0.0303871 -0.0688837 0.000116 -7.17728 -0.668736 0.0270175 2650 
2816 1 -0.00243339 -0.0261475 -0.0688411 0.000116 -7.80605 0.253127 0.27758 2650 
4017 1 -0.00529372 -0.0211506 -0.0686801 0.000116 -7.70214 0.439825 0.594381 2650 
1202 1 -0.00524912 -7.75305e-05 -0.0687576 4.2e-05 -5.41005 -0.0383967 0.421287 2650 
1805 1 -0.00387741 -0.0381928 -0.0684684 0.000423 -7.37033 -0.0138681 0.416377 2650 
812 1 -0.00461547 -0.0353963 -0.0684231 0.000423 -6.97761 -0.903045 0.485644 2650 
2123 1 -0.00735536 -0.0344606 -0.0681827 0.000423 -7.37107 0.162659 0.799037 2650 
3219 1 -0.00883599 -0.0332493 -0.0680045 0.000423 -6.7567 0.513122 0.867921 2650 
991 1 -0.00724315 -0.0330279 -0.0679612 0.000656 -7.43755 -0.000450251 0.806687 2650 
4064 1 -0.00761359 -0.0307959 -0.0679212 0.000656 -6.1595 -0.421094 0.701691 2650 
1670 1 -0.00235882 -0.0280135 -0.0685378 0.000423 -7.1291 0.0296752 0.235622 2650 
1877 1 -0.000539037 -0.0276026 -0.0683442 0.000656 -7.68307 -0.0863101 0.0755275 2650 
2224 1 -0.00934885 -0.0262327 -0.0679368 0.000423 -6.58963 0.239922 0.889037 2650 
3422 1 -0.00380328 -0.0218553 -0.0684724 0.000423 -7.29606 0.081095 0.411991 2650 
419 1 -0.0102552 -0.0137138 -0.0681126 0.000116 -5.72403 -0.0823525 0.827487 2650 
3013 1 -0.00502684 -0.0139283 -0.0683939 0.000423 -6.2061 -0.138164 0.467778 2650 
1500 1 -0.00865904 -0.0132991 -0.0683362 0.000116 -5.28339 -0.395147 0.646245 2650 
649 1 -0.00650921 -0.00675701 -0.0685761 0.000116 -6.28303 -0.468213 0.611995 2650 
1377 1 -0.00914783 -0.00190131 -0.068273 0.000116 -6.21911 -0.160783 0.83907 2650 
1956 1 -0.00543573 -0.000184992 -0.0686692 0.000116 -5.59214 -0.0180817 0.430586 2650 
3357 1 -0.0148173 -0.0427589 -0.0672714 0.000116 -6.73594 0.605759 1.44876 2650 
2700 1 -0.01451 -0.0392437 -0.0673367 0.000116 -7.15274 0.0545537 1.54195 2650 
245 1 -0.011286 -0.0341376 -0.0676426 0.000423 -7.33238 -0.870448 1.21452 2650 
3875 1 -0.0107922 -0.0314925 -0.06772 0.000423 -7.02317 -0.288698 1.09638 2650 
917 1 -0.0103295 -0.0281692 -0.0677927 0.000423 -6.78608 -0.0916029 1.01173 2650 
797 1 -0.0109312 -0.0275568 -0.0676961 0.000423 -6.66017 0.0831136 1.08664 2650 
455 1 -0.0136484 -0.0262177 -0.0672003 0.000423 -6.73359 -0.114229 1.38532 2650 
2148 1 -0.014516 -0.0248253 -0.0673306 0.000116 -7.12161 0.0842895 1.52025 2650 
2937 1 -0.0138731 -0.01565 -0.0674703 0.000116 -6.43997 -0.083878 1.34172 2650 
4044 1 -0.012796 -0.0145838 -0.0676746 0.000116 -5.0038 -0.714395 0.910603 2650 
15 1 -0.0142724 -0.0110489 -0.067072 0.000423 -7.12207 0.00118511 1.57096 2650 
3248 1 -0.015342 -0.0100932 -0.0671489 0.000116 -6.25018 0.884477 1.34576 2650 
2593 1 -0.0135949 -0.00851901 -0.0675246 0.000116 -4.91629 -0.474291 0.964805 2650 
733 1 -0.0121423 -0.000478607 -0.0678051 0.000116 -6.945 0.936511 1.23894 2650 
95 1 -0.0182253 -0.0293268 -0.0664282 0.000116 -6.61799 0.24851 1.80292 2650 
4084 1 -0.014539 -0.0257554 -0.0670142 0.000423 -6.74492 -0.0202655 1.39309 2650 
3096 1 -0.0162138 -0.0241734 -0.066628 0.000423 -6.86552 -0.0387292 1.63426 2650 
2248 1 -0.0160261 -0.0232451 -0.0666776 0.000423 -6.82283 -0.0274726 1.58218 2650 
42 1 -0.0155984 -0.0221484 -0.0667756 0.000423 -6.98432 -0.0498205 1.64968 2650 
1208 1 -0.0167944 -0.0104719 -0.0668654 4.2e-05 -7.11936 -0.492888 1.80015 2650 
333 1 -0.0132666 -0.0106334 -0.0670352 0.000656 -7.12987 -0.0276201 1.39631 2650 
2698 1 -0.0177668 -0.00950369 -0.0665485 0.000116 -7.46574 0.0341665 2.0496 2650 
1193 1 -0.0176483 -0.00401439 -0.0665787 0.000116 -3.01499 0.0164659 0.909164 2650 
725 1 -0.0167906 -0.00066471 -0.0668009 0.000116 -7.47504 -0.173067 1.8596 2650 
3399 1 -0.0192952 -0.0327613 -0.0662034 4.2e-05 -7.68207 -0.141671 2.23098 2650 
1901 1 -0.0179135 -0.0249932 -0.0661971 0.000423 -7.07025 -0.0297325 1.92549 2650 
3862 1 -0.0193823 -0.019028 -0.0657814 0.000423 -7.35263 -0.200383 2.16105 2650 
3673 1 -0.0201533 -0.0181405 -0.0655488 0.000423 -3.8343 0.88521 1.15472 2650 
1174 1 -0.0206987 -0.0048971 -0.0657003 0.000116 -5.84976 -0.245239 1.84354 2650 
3718 1 -0.02051 -0.00428967 -0.0658366 4.2e-05 -5.59319 0.120694 1.74301 2650 
440 1 -0.0192711 -0.00446467 -0.0662069 4.2e-05 -3.4428 -0.0532876 -0.126868 2650 
2139 1 -0.0219931 -0.0329659 -0.0649557 0.000423 -6.72091 -0.0958721 2.25923 2650 
3386 1 -0.0220601 -0.0316812 -0.065256 0.000116 -6.41427 0.189369 2.17148 2650 
1566 1 -0.0217012 -0.031316 -0.0650539 0.000423 -6.44679 0.251501 2.17099 2650 
3754 1 -0.0209953 -0.0250156 -0.0652848 0.000423 -6.1829 -0.285755 2.02658 2650 
213 1 -0.021945 -0.0106129 -0.065373 4.2e-05 -5.55083 0.0286809 1.87511 2650 
83 1 -0.0244439 -0.0416386 -0.0644013 0.000116 -6.84428 0.217618 2.59364 2650 
1463 1 -0.0230752 -0.0346798 -0.0645795 0.000423 -6.61331 0.0250221 2.35449 2650 
821 1 -0.0248865 -0.0293547 -0.0639032 0.000423 -6.80748 -0.0579314 2.64397 2650 
3891 1 -0.0235496 -0.0235358 -0.0644071 0.000423 -5.27343 -1.22212 1.93658 2650 
158 1 -0.0239065 -0.0169776 -0.0642764 0.000423 -7.47963 -0.0119468 2.76402 2650 
596 1 -0.0236983 -0.0154989 -0.0643535 0.000423 -5.74291 -0.010356 2.1215 2650 
1585 1 -0.0228773 -0.0156799 -0.0646496 0.000423 -7.26703 0.0629179 2.57602 2650 
2007 1 -0.0231402 -0.0119249 -0.0645564 0.000423 -5.1833 -0.360708 1.87804 2650 
4145 1 -0.0247655 -0.000944084 -0.0642781 0.000116 -4.08234 -0.103612 1.56364 2650 
2131 1 -0.0264772 -0.0392536 -0.06326 0.000423 -6.9181 0.0601088 2.89058 2650 
3743 1 -0.0253885 -0.032333 -0.0637061 0.000423 -6.39754 0.00675692 2.53885 2650 
198 1 -0.0274615 -0.0288398 -0.063174 0.000116 -5.69119 -0.673115 2.46568 2650 
3652 1 -0.0260148 -0.0278108 -0.0634526 0.000423 -6.82175 0.257165 2.79104 2650 
4345 1 -0.0266934 -0.022466 -0.0635016 0.000116 -5.89975 -0.310284 2.47999 2650 
334 1 -0.0262738 -0.0177585 -0.0630941 0.000656 -6.81732 0.381357 2.87974 2650 
13 1 -0.0256878 -0.0142252 -0.0635853 0.000423 -5.78471 -0.196072 2.35033 2650 
1031 1 -0.0254386 -0.00885652 -0.0636851 0.000423 -5.53751 -0.0364648 2.19437 2650 
2514 1 -0.0261038 -0.00153204 -0.0637458 0.000116 -5.81901 0.0242792 2.38345 2650 
4307 1 -0.0278016 -0.0329795 -0.0626903 0.000423 -6.75924 0.126442 3.01047 2650 
2873 1 -0.0272397 -0.027555 -0.0629366 0.000423 -6.94756 0.0165563 3.03366 2650 
4331 1 -0.0283833 -0.024533 -0.0627643 0.000116 -7.2931 -0.403269 3.29247 2650 
688 1 -0.0269866 -0.0250423 -0.0630449 0.000423 -7.46296 -0.521006 3.19778 2650 
3491 1 -0.0292725 -0.0158294 -0.0623547 0.000116 -5.67385 -0.0378379 2.65179 2650 
1380 1 -0.0293768 -0.0152775 -0.0623055 0.000116 -7.16307 1.46947 3.38182 2650 
3139 1 -0.028254 -0.0118951 -0.0628236 0.000116 -6.22587 0.179926 2.80776 2650 
2018 1 -0.0293603 -0.0263121 -0.0619753 0.000423 -6.97424 0.229997 3.30896 2650 
3626 1 -0.0285758 -0.0250842 -0.0620864 0.000656 -5.69395 -0.107458 2.61952 2650 
3549 1 -0.0289404 -0.0236835 -0.0621723 0.000423 -7.49579 -0.813025 3.49493 2650 
1989 1 -0.0281985 -0.0209931 -0.0622581 0.000656 -5.60664 0.184629 2.51841 2650 
2921 1 -0.0303387 -0.0040363 -0.0618419 0.000116 -5.88919 -0.184829 2.88994 2650 
2667 1 -0.0311961 -0.0353649 -0.0610717 0.000423 -6.66057 -0.0770725 3.38537 2650 
3477 1 -0.0249163 -0.00502995 -0.0611 0.000116 -2.4177 -0.0807371 1.41501 2650 
4038 1 -0.0313602 -0.00439666 -0.0613309 0.000116 -6.6907 0.443374 3.42366 2650 
1849 1 -0.0342923 -0.0377765 -0.0597408 0.000116 -6.33052 0.5877 3.62964 2650 
2641 1 -0.0340108 -0.0294474 -0.0592821 0.000656 -6.80848 0.0504487 3.9545 2650 
2959 1 -0.0348365 -0.0186323 -0.0595103 4.2e-05 -5.29833 -1.09207 3.09379 2650 
1392 1 -0.0352875 -0.00809793 -0.0591465 0.000116 -5.36175 -0.420925 3.18094 2650 
3828 1 -0.0344801 -0.00787796 -0.0597164 4.2e-05 -6.83386 -0.800065 3.88237 2650 
1320 1 -0.0356609 -0.0412811 -0.0590213 4.2e-05 -6.16143 -0.983262 3.72575 2650 
2102 1 -0.0350071 -0.0362977 -0.0586971 0.000656 -6.31151 -0.136838 3.76283 2650 
2560 1 -0.0352356 -0.0350258 -0.0588233 0.000423 -6.29568 -0.0790022 3.77551 2650 
3388 1 -0.0364198 -0.00791777 -0.0584645 0.000116 -5.3313 -0.423382 3.34974 2650 
2246 1 -0.0354849 -0.00791636 -0.0586701 0.000423 -5.34142 -0.527593 3.24491 2650 
579 1 -0.0357887 -0.00476033 -0.0584969 0.000423 -4.99172 0.214915 3.01712 2650 
164 1 -0.0365084 -0.0340718 -0.0580539 0.000423 -5.41598 -0.340196 3.40107 2650 
4312 1 -0.0362476 -0.0331853 -0.0582106 0.000423 -6.21158 -0.0965629 3.89566 2650 
4293 1 -0.0371792 -0.0319369 -0.0576071 0.000423 -5.81804 -0.210658 3.68817 2650 
630 1 -0.0372456 -0.0299696 -0.0579309 0.000116 -3.83526 -0.47268 2.34376 2650 
892 1 -0.0365 -0.0278974 -0.0577837 0.000656 -6.47279 0.0207318 3.99504 2650 
3444 1 -0.0371243 -0.0252582 -0.0576575 0.000423 -6.38946 0.131153 4.0536 2650 
1886 1 -0.0362992 -0.01779 -0.0581828 0.000423 -4.53984 -0.138552 2.75616 2650 
2271 1 -0.0376351 -0.0155617 -0.0576839 0.000116 -5.877 -0.0605753 3.79008 2650 
1316 1 -0.0377167 -0.00722844 -0.057705 4.2e-05 -4.68548 -0.336393 3.00775 2650 
2476 1 -0.038128 -0.0135713 -0.0573453 0.000116 -4.95258 -0.030686 3.28182 2650 
2282 1 -0.038031 -0.00995259 -0.0574075 0.000116 -4.14881 0.467201 2.73065 2650 
1841 1 -0.040091 -0.0418367 -0.0560114 0.000116 -10.0259 -0.285463 5.28231 2650 
2532 1 -0.040259 -0.0393297 -0.0552315 0.000656 -5.85878 -0.327219 4.29551 2650 
1045 1 -0.0405986 -0.0149652 -0.0552692 0.000423 -5.13419 -0.665739 3.79227 2650 
1675 1 -0.0403355 -0.0140449 -0.0554613 0.000423 -6.42627 1.04304 4.66589 2650 
2681 1 -0.0401989 -0.0089643 -0.0555607 0.000423 -5.28666 -0.254586 3.84108 2650 
2160 1 -0.0403521 -0.000130754 -0.0558277 0.000116 -4.74972 -0.0208944 3.43743 2650 
1132 1 -0.0413974 -0.0417469 -0.0546741 0.000423 -6.22659 0.0895937 4.69507 2650 
1647 1 -0.0529816 -0.0407717 -0.0547007 4.2e-05 -7.28114 0.0925493 2.48323 2650 
1690 1 -0.0410596 -0.0377588 -0.0549272 0.000423 -5.78158 -0.0976862 4.3445 2650 
2210 1 -0.0413135 -0.0346276 -0.0544463 0.000656 -6.07384 -0.0453895 4.64364 2650 
2738 1 -0.0416767 -0.00118273 -0.0549382 4.2e-05 -4.61287 -0.15273 3.50719 2650 
2618 1 -0.042334 -0.0243328 -0.0543398 0.000116 -5.30709 -0.305295 4.12878 2650 
3759 1 -0.0428956 -0.0339509 -0.0535065 0.000423 -5.67593 0.133216 4.5685 2650 
1890 1 -0.0436041 -0.0185119 -0.05293 0.000423 -5.26662 -0.0781816 4.34956 2650 
4264 1 -0.0435995 -0.00947022 -0.0534254 4.2e-05 -5.0147 0.38916 4.08854 2650 
1282 1 -0.043411 -0.00690834 -0.0534837 0.000116 -4.18402 0.155984 3.38045 2650 
1723 1 -0.0441815 -0.00550469 -0.0528491 0.000116 -4.122 -0.105623 3.42576 2650 
3153 1 -0.0443938 -0.0043457 -0.0526707 0.000116 -3.68059 -0.155408 3.08568 2650 
1878 1 -0.0463299 -0.0449436 -0.0502468 0.000656 -6.48689 0.0236537 5.96813 2650 
2169 1 -0.0469876 -0.0409775 -0.05037 0.000116 -4.58254 -0.192257 4.26802 2650 
1816 1 -0.0476336 -0.0185332 -0.0497593 0.000116 -4.86467 -0.261558 4.6559 2650 
3047 1 -0.0482941 -0.0103302 -0.0491197 0.000116 -3.7437 -0.256463 3.67707 2650 
2083 1 -0.0492923 -0.00151054 -0.0482223 4.2e-05 -3.84475 -0.0612657 3.93075 2650 
3582 1 -0.049545 -0.029453 -0.0478584 0.000116 -4.78683 -0.618863 4.96768 2650 
1335 1 -0.0495335 -0.0213397 -0.047428 0.000423 -4.62864 -0.248858 4.81757 2650 
848 1 -0.049395 -0.00487308 -0.047512 0.000116 -2.18453 -0.100767 2.38573 2650 
693 1 -0.0503401 -0.0389936 -0.0465709 0.000423 -5.07107 0.0865022 5.50901 2650 
1640 1 -0.0504997 -0.0111056 -0.0469572 4.2e-05 -4.52773 -0.226719 4.85205 2650 
19 1 -0.0514366 -0.0358152 -0.0453566 0.000423 -4.92446 -0.0366774 5.57785 2650 
2147 1 -0.0515862 -0.0198063 -0.0456493 0.000116 -4.15834 -0.539369 4.68954 2650 
3313 1 -0.0520078 -0.0402457 -0.0447004 0.000423 -4.90332 -0.0160755 5.68459 2650 
2256 1 -0.0524377 -0.0364372 -0.0446686 0.000116 -4.36154 -0.312766 5.10848 2650 
3156 1 -0.0528288 -0.0345935 -0.0442059 0.000116 -4.76669 -1.38575 5.69024 2650 
385 1 -0.0522805 -0.0151744 -0.0443773 0.000423 -3.41321 -0.181924 4.14308 2650 
2875 1 -0.0518331 -0.013245 -0.0448954 0.000423 -3.49832 -0.107488 4.0727 2650 
3586 1 -0.0523809 -0.00589633 -0.044735 0.000116 -3.68052 -0.244975 4.23549 2650 
3431 1 -0.0530032 -0.0390094 -0.0435156 0.000423 -4.78875 -0.147406 5.83293 2650 
432 1 -0.0539572 -0.0194025 -0.0429395 4.2e-05 -3.9283 0.295157 4.93797 2650 
1170 1 -0.0539208 -0.0100449 -0.0428469 0.000116 -3.33489 -0.119928 4.25867 2650 
2832 1 -0.0546605 -0.0259755 -0.0419195 0.000116 -4.65735 0.992196 6.05867 2650 
1558 1 -0.0516077 -0.0222179 -0.0424789 0.000423 -2.0029 -1.28254 2.73759 2650 
2626 1 -0.0559066 -0.0261082 -0.0402419 0.000116 -3.98866 -0.0511579 5.52301 2650 
1210 1 -0.0571535 -0.0291776 -0.0385791 4.2e-05 -3.96456 -0.128031 5.71501 2650 
1379 1 -0.0537135 -0.00881957 -0.0392425 0.000116 -0.787153 -0.34249 3.41987 2650 
1740 1 -0.0576971 -0.0141889 -0.0376301 0.000116 -3.49043 0.301535 5.35754 2650 
2465 1 -0.0581239 -0.0367997 -0.0363766 0.000423 -4.06993 -0.037954 6.50455 2650 
2211 1 -0.0579714 -0.0307353 -0.0361742 0.000656 -4.16862 0.0222065 6.75808 2650 
106 1 -0.0586795 -0.0134168 -0.03622 4.2e-05 -4.57958 0.0182035 7.41911 2650 
2310 1 -0.0588234 -0.0172135 -0.0359858 4.2e-05 -3.14657 -0.135953 5.15355 2650 
3585 1 -0.0586338 -0.0160355 -0.0361534 0.000116 -3.32868 -0.0948491 5.41005 2650 
646 1 -0.058706 -0.0134889 -0.0360362 0.000116 -3.29715 -0.158072 5.41127 2650 
2970 1 -0.0592103 -0.0430789 -0.0341378 0.000656 -4.19005 -0.0296063 7.24669 2650 
3090 1 -0.0594604 -0.0389629 -0.0341668 0.000423 -3.77153 -0.188108 6.54146 2650 
420 1 -0.0597428 -0.0235243 -0.0342871 0.000116 -4.2013 -0.330697 7.2837 2650 
3256 1 -0.0597108 -0.013007 -0.034346 0.000116 -3.32176 -0.282709 5.78077 2650 
3986 1 -0.0596252 -0.0104578 -0.0338795 0.000423 -3.01506 -0.21841 5.28098 2650 
2605 1 -0.059709 -0.00612293 -0.034349 0.000116 -2.32588 -0.0345595 4.02615 2650 
1699 1 -0.0599449 -0.0136172 -0.0333101 0.000423 -2.1429 -0.547126 3.84905 2650 
4108 1 -0.0601711 -0.00933352 -0.0329001 0.000423 -2.26713 -0.181232 4.14912 2650 
404 1 -0.0604936 -0.00632789 -0.032948 0.000116 -2.93949 0.240669 5.38509 2650 
1419 1 -0.061091 -0.01082 -0.0318278 0.000116 -3.07906 -0.528463 5.92252 2650 
980 1 -0.0612079 -0.00886685 -0.0317626 4.2e-05 -2.34685 -0.351308 4.52747 2650 
1572 1 -5.64844e-05 -0.0298431 -0.0685787 0.000423 -7.55708 0.124661 0.014599 2650 
491 1 -0.0619848 -0.0154388 -0.0293395 0.000423 -2.71786 -0.152 5.76128 2650 
981 1 -0.0621767 -0.0148192 -0.0298207 4.2e-05 -2.83219 -0.0144201 5.89129 2650 
1312 1 -0.0623366 -0.0122664 -0.029486 4.2e-05 -2.35474 1.00677 4.9985 2650 
3378 1 -0.0622826 -0.00339262 -0.0294256 0.000116 -2.28093 0.586384 4.81501 2650 
4268 1 -0.0635698 -0.0269204 -0.0267225 4.2e-05 -2.65201 -0.23711 6.29832 2650 
4311 1 -0.0633785 -0.041672 -0.0261949 0.000423 -2.99436 0.223723 7.20115 2650 
1503 1 -0.0637505 -0.0128092 -0.0260953 0.000116 -2.41735 0.0663737 5.89248 2650 
2291 1 -0.063802 -0.0114348 -0.0259688 0.000116 -3.02709 0.674547 7.43366 2650 
319 1 -0.0641056 -0.0120392 -0.0252108 0.000116 -1.90465 0.190636 4.82774 2650 
2987 1 -0.0640298 -0.0131613 -0.0245601 0.000423 -1.83461 -0.545723 4.79369 2650 
94 1 -0.0643194 -0.00471894 -0.0246587 0.000116 -2.15277 -0.18554 5.59213 2650 
2404 1 -0.0647401 -0.022966 -0.0235315 0.000116 -2.42456 0.0641361 6.68431 2650 
2920 1 -0.0650367 -0.0305962 -0.0227004 0.000116 -2.80216 0.00212718 8.0117 2650 
4132 1 -0.0649727 -0.0110002 -0.0228826 0.000116 -2.10821 0.00208399 6.00314 2650 
2606 1 -0.0652779 -0.0289297 -0.0219964 0.000116 -2.47991 0.339172 7.37096 2650 
2588 1 -0.0650765 -0.026256 -0.0225843 0.000116 -2.52568 -0.578742 7.27269 2650 
3930 1 -0.0651091 -0.000375933 -0.0224896 0.000116 -1.39688 -0.0619989 4.01119 2650 
152 1 -0.0650515 -0.0406742 -0.0217068 0.000423 -2.48845 -0.102092 7.48807 2650 
3040 1 -0.0655025 -0.0309617 -0.0213177 0.000116 -2.31682 -0.0942413 7.11322 2650 
1687 1 -0.0651832 -0.0304885 -0.02131 0.000423 -2.34199 0.00470935 7.24235 2650 
1987 1 -0.0647453 -0.0196997 -0.0218919 0.000656 -2.30913 0.0498567 6.77903 2650 
468 1 -0.0653468 -0.0386782 -0.020803 0.000423 -2.37432 -0.0931324 7.49663 2650 
3140 1 -0.0657726 -0.0322201 -0.0204672 0.000116 -2.01378 -0.374399 6.48305 2650 
1249 1 -0.065437 -0.0301995 -0.0205187 0.000423 -2.27246 0.130147 7.25951 2650 
2371 1 -0.0656863 -0.0237839 -0.0207441 0.000116 -2.18043 0.0597589 6.88135 2650 
921 1 -0.0654214 -0.0188599 -0.0205657 0.000423 -2.19578 0.0520832 6.94668 2650 
1471 1 -0.0657236 -0.037994 -0.0195797 0.000423 -2.13347 -0.229813 7.08929 2650 
239 1 -0.0655878 -0.0309205 -0.0200283 0.000423 -2.20054 0.013471 7.18665 2650 
3367 1 -0.0659036 -0.0222096 -0.0200423 0.000116 -2.15312 0.7628 7.08449 2650 
838 1 -0.0659599 -0.0225811 -0.0198563 0.000116 -2.8235 -0.546154 9.37545 2650 
862 1 -0.0659836 -0.0136674 -0.0197773 0.000116 -2.01864 0.343809 6.74593 2650 
3470 1 -0.0660422 -0.0131702 -0.0195809 0.000116 -1.97426 0.665181 6.63565 2650 
3196 1 -0.0659585 -0.028915 -0.0187729 0.000423 -2.06289 0.0960567 7.13568 2650 
365 1 -0.0659347 -0.0197994 -0.0188568 0.000423 -2.01999 -0.166857 7.1074 2650 
1544 1 -0.0657231 -0.0354207 -0.0187537 0.000656 -2.20004 -0.0714355 7.69267 2650 
2296 1 -0.0663586 -0.0190004 -0.0184799 0.000116 -1.7949 -0.124098 6.44173 2650 
3089 1 -0.0662511 -0.0313835 -0.0177144 0.000423 -1.91197 0.0628986 7.21547 2650 
3330 1 -0.0665008 -0.0309572 -0.0167509 0.000423 -1.80556 -0.0987953 7.22997 2650 
3882 1 -0.0136287 -0.00459651 -0.0170301 0.000423 -1.33982 -0.240708 -1.77302 2650 
606 1 -0.000183 0.00128936 -0.016592 0.000116 0 -0.011753 0 2650 
4227 1 -0.000394989 0.0036161 -0.0166852 0.000116 0.00593372 -0.017543 0.0130313 2650 
2520 1 -0.000206778 0.00489796 -0.0166057 4.2e-05 0.00318265 0.000380138 0.00682554 2650 
3365 1 -0.00176343 0.00593308 -0.0166317 0.000116 0.015804 0.0241832 0.0212134 2650 
2790 1 -0.0666888 -0.0358571 -0.015986 0.000423 -1.76439 -0.0803234 7.32365 2650 
2086 1 -0.0670913 -0.0128364 -0.0159347 4.2e-05 -1.16699 -0.20867 4.88386 2650 
2013 1 -0.00300011 0.0031002 -0.0158672 0.000423 -0.00154235 0.00221798 0.00156406 2650 
2301 1 -0.00433922 0.00339392 -0.0160549 4.2e-05 -0.00116259 -0.0070103 0.00459775 2650 
2283 1 -0.00352974 0.00449647 -0.0163793 0.000116 -0.00010552 0.00956354 0.000789399 2650 
889 1 -0.0014023 0.00451235 -0.0160419 0.000656 0.0220635 0.0158109 0.0220891 2650 
978 1 -0.00218421 0.00626149 -0.0164237 0.000116 0.0180122 -0.00353228 -0.00159853 2650 
3934 1 -0.001977 0.00605136 -0.016218 0.000116 0 -0.011753 0 2650 
2726 1 -0.000502832 0.00906203 -0.015924 0.000116 -0.00741369 0.00988612 -0.041436 2650 
938 1 -0.00152178 0.00992829 -0.0159938 0.000116 -0.00119823 0.000558801 -0.00633771 2650 
302 1 -0.00146717 0.0100723 -0.0165038 0.000116 -0.0434127 0.0256721 -0.0191129 2650 
1483 1 -0.000488556 0.010447 -0.0164872 0.000423 -0.000431738 0.0094693 0.00416488 2650 
3007 1 -0.00289111 0.0114365 -0.0160046 0.000423 -0.00754521 0.0118776 -0.00214285 2650 
371 1 -0.000455134 0.011892 -0.0162286 0.000423 -0.00963196 0.00951459 -0.00479058 2650 
2851 1 -0.00444057 0.0130141 -0.0162443 4.2e-05 -0.261069 -0.140633 0.0469352 2650 
188 1 -0.00306575 0.0133929 -0.0161558 0.000116 -0.0148612 0.0228045 0.00418427 2650 
2182 1 -0.00152783 0.0137562 -0.0163372 0.000116 0.00266263 0.0360122 0.0211071 2650 
2713 1 -0.000705409 0.0156644 -0.0159369 0.000116 0.00037122 0.035974 0.00535071 2650 
3051 1 -0.00414255 0.0163105 -0.0159287 0.000116 0.163555 -0.227841 -0.0207843 2650 
1717 1 -0.00391718 0.0303865 -0.015828 0.000116 -0.014717 0.0706098 -0.0348682 2650 
2056 1 -0.00240052 0.0346372 -0.0165318 0.000116 -0.81972 0.13637 0.146054 2650 
456 1 -0.00424645 0.0431651 -0.0158617 0.000423 -0.596008 0.0230783 0.1117 2650 
670 1 -0.0666812 -0.0174196 -0.0149875 0.000656 -1.53785 -0.0546351 6.78925 2650 
3069 1 -0.0671711 -0.00869878 -0.015596 4.2e-05 -1.64741 -0.810513 7.13781 2650 
3382 1 -0.0672034 -0.00334662 -0.0151231 0.000116 -1.23711 -0.345885 5.53539 2650 
30 1 -0.00217193 -0.00220151 -0.0154769 0.000423 -0.0139928 -0.0214008 0.00726417 2650 
3599 1 -0.000414902 -0.00178019 -0.0153079 0.000116 0.0260231 -0.00977207 -0.00117121 2650 
3576 1 -0.000995781 -0.00139427 -0.0152603 0.000116 0.0561059 0.00120064 -0.0311085 2650 
2399 1 -0.002418 0.00150336 -0.015541 0.000116 0 -0.011753 0 2650 
3637 1 -0.00538505 0.0041736 -0.0153465 0.000423 -0.00704251 0.0124689 0.006236 2650 
1611 1 -0.00180933 0.00432475 -0.0154112 0.000116 0.0513704 -0.0152435 0.0155029 2650 
1679 1 -0.00426661 0.00492929 -0.0157694 0.000423 -0.00453172 0.0157125 0.00260684 2650 
3830 1 -0.006879 0.00760336 -0.015411 4.2e-05 0 -0.011753 0 2650 
2438 1 -0.00620372 0.00724827 -0.0151452 0.000423 -0.00468347 -0.000292455 -0.00123863 2650 
3150 1 -0.00209227 0.0101585 -0.0157188 0.000116 -0.0182263 -0.0087302 -0.0269448 2650 
70 1 -0.00292376 0.0130528 -0.0155888 0.000116 0.0560864 0.0328811 0.00597028 2650 
2793 1 -0.000945255 0.0130683 -0.0152005 0.000423 0.00400332 0.0260717 0.000754087 2650 
3838 1 -0.00521995 0.0139964 -0.0150463 0.000656 0.0059045 0.0308137 -0.0288407 2650 
3165 1 -0.00581009 0.02002 -0.0156624 0.000116 -0.042342 0.12169 0.0695027 2650 
93 1 -0.00612379 0.0200038 -0.0156983 0.000116 -0.0930021 0.08494 0.0463235 2650 
2466 1 -0.00329157 0.0225201 -0.0153323 0.000423 0.0618857 0.0331724 -0.00268308 2650 
1776 1 -0.0058578 0.0244029 -0.0152921 0.000423 -0.019036 0.131664 0.086751 2650 
2585 1 -0.00169866 0.0270616 -0.0150277 0.000116 -0.0221426 0.0759057 0.0070692 2650 
2091 1 -0.0668412 -0.0424176 -0.0142672 0.000656 -1.67619 0.000523218 7.95268 2650 
122 1 -0.0668692 -0.0343024 -0.0141339 0.000656 -1.57525 0.00156877 7.44321 2650 
1787 1 -0.0671158 -0.0238579 -0.0140837 0.000423 -1.55842 0.284783 7.37713 2650 
4244 1 -0.00303619 -0.00311178 -0.01425 0.000116 -0.0436806 -0.00994679 0.0125723 2650 
736 1 -0.00841874 -0.00164356 -0.0142702 0.000116 -0.0307431 -0.0170391 0.0144389 2650 
1053 1 -0.007469 -0.00233864 -0.014946 0.000116 0 -0.011753 0 2650 
3011 1 -0.000564317 -0.00232323 -0.0145755 0.000423 0.0180353 -0.0317081 -0.0392676 2650 
1763 1 -0.00402723 -0.00107291 -0.014211 0.000656 0.0110508 0.03864 0.047043 2650 
509 1 -0.00780764 -0.000768692 -0.0142805 0.000116 -0.00480979 -0.0076817 0.0108723 2650 
2666 1 -0.00781312 0.00186517 -0.0144962 0.000423 0.0108489 0.0809916 0.0205028 2650 
857 1 -0.00707535 0.00326071 -0.014802 0.000116 -0.0623021 0.0193526 0.00200378 2650 
3787 1 -0.00682876 0.00398624 -0.0144226 0.000116 -0.0024271 -0.00223267 -0.0195234 2650 
1192 1 -0.00726499 0.00634178 -0.0148904 0.000116 0.00510585 0.0133553 0.012363 2650 
1827 1 -0.00325524 0.00780776 -0.0143998 0.000116 0.0445821 -0.0304485 -0.00868089 2650 
3364 1 -0.00677084 0.00841564 -0.014563 0.000116 -0.00179506 0.0163753 -0.0232219 2650 
581 1 -0.0056025 0.00809657 -0.0144663 0.000423 0.000441693 0.00100922 0.00165067 2650 
233 1 -0.00349181 0.0088803 -0.0146531 0.000423 0.00841442 -0.00267664 0.00454736 2650 
86 1 -0.00489139 0.0108224 -0.0149398 0.000116 -0.0196067 0.0126222 0.000798653 2650 
2969 1 -0.00260348 0.0108701 -0.0148896 0.000656 -0.00667616 0.014076 0.00443217 2650 
2781 1 -0.00581243 0.0112283 -0.0149392 0.000423 0.00977627 0.0105103 0.0120467 2650 
1228 1 -0.00246371 0.0135351 -0.0147472 0.000423 -0.0165199 0.0339339 0.00467854 2650 
2191 1 -0.00223015 0.0134255 -0.0142985 4.2e-05 -0.0219515 0.010649 -0.0334451 2650 
3644 1 -0.00130658 0.0141261 -0.0148041 0.000423 -0.00424564 0.0328325 0.0133159 2650 
2924 1 -0.00881497 0.0165582 -0.0142465 0.000116 -0.0500795 0.0331408 0.0243033 2650 
4234 1 -0.00483888 0.0336609 -0.014556 0.000116 0.00512064 0.0508026 0.0366661 2650 
1195 1 -0.00345098 0.0344927 -0.0148599 0.000116 0.0557766 0.0782116 -0.0138054 2650 
2863 1 -0.000108787 0.0560171 -0.0144941 0.000656 0.0604357 -0.0531799 0.0156593 2650 
1991 1 -0.00830985 0.000190091 -0.0138574 0.000656 -0.0192457 -0.00223252 0.00858771 2650 
2609 1 -0.00840973 0.00109328 -0.0135436 0.000116 -0.00705034 0.0126459 0.00789545 2650 
2473 1 -0.00871247 0.00185623 -0.0138637 0.000423 -0.0442117 0.037927 0.0421781 2650 
2913 1 -0.00951156 0.00324409 -0.013498 0.000116 -0.0031719 -0.0208365 0.00893463 2650 
763 1 -0.00717931 0.00350277 -0.0136705 4.2e-05 -0.0107376 -0.0192397 -0.014763 2650 
220 1 -0.00331858 0.00364483 -0.0137724 4.2e-05 0.00197382 0.00663681 0.00671825 2650 
3446 1 -5.08188e-05 0.00327462 -0.0134482 0.000423 0.016221 -0.0142776 -0.00742368 2650 
1288 1 -0.002467 0.00523236 -0.014044 0.000116 0 -0.011753 0 2650 
3515 1 -0.00850017 0.00644543 -0.0136585 0.000656 -0.00454215 -0.00749919 0.00616721 2650 
1618 1 -0.0095254 0.00760384 -0.0138155 0.000116 0.0059414 0.00192455 -0.00369393 2650 
1769 1 -0.0085263 0.00794215 -0.0137531 0.000656 -0.00763615 -0.00751468 0.00847974 2650 
4368 1 -0.000272696 0.00863864 -0.0139412 0.000116 0.0213285 8.20602e-05 -0.0260591 2650 
4190 1 -0.00922033 0.00935714 -0.0136618 0.000423 -0.00788233 0.00684233 0.00501954 2650 
842 1 -0.00771145 0.008871 -0.0137835 0.000116 -0.0132472 -0.000581938 -0.0143857 2650 
1409 1 -0.000472797 0.00900528 -0.0138853 0.000116 -0.00338114 -0.0124825 -0.00177889 2650 
793 1 -9.76374e-06 0.0093252 -0.0137423 0.000423 -0.00384688 0.00642406 -0.0108379 2650 
289 1 -0.00359016 0.0101087 -0.013887 0.000116 -0.0130397 0.0193908 0.0119694 2650 
3500 1 -0.00511823 0.0108274 -0.0136747 4.2e-05 -0.0484689 0.00233787 0.0298831 2650 
2453 1 -0.00598764 0.0120637 -0.0140135 0.000423 0.00287214 0.0261989 -0.0126472 2650 
1802 1 -0.00328943 0.0123968 -0.01395 0.000423 0.00500259 -0.000364755 -0.0111755 2650 
2345 1 -0.00150442 0.013602 -0.0135145 0.000423 -0.0175833 0.0131789 -0.0282092 2650 
128 1 -0.000701715 0.0136898 -0.0137902 0.000423 -0.0122377 0.0336028 -0.0162643 2650 
3145 1 -0.00897199 0.0146422 -0.0141217 0.000116 -0.0186098 0.0309384 -0.020461 2650 
3471 1 -0.00749498 0.0144077 -0.0137286 0.000116 0.00654915 0.0415659 -0.0136084 2650 
1839 1 -0.00652131 0.0161624 -0.0137793 0.000116 -0.0676852 0.0211351 0.0188737 2650 
3973 1 -0.00683831 0.0428997 -0.0141616 0.000423 -0.0294603 0.112835 -0.0424766 2650 
3588 1 -0.000198676 0.0428158 -0.0138103 0.000116 0.181107 0.0152304 0.0217687 2650 
4010 1 -0.00620287 0.0447127 -0.0138735 0.000116 0.0373387 0.0604042 0.0259593 2650 
2614 1 -0.00141142 0.0528134 -0.0140989 0.000116 -0.0792369 -0.0730102 0.0417576 2650 
3820 1 -0.000116593 0.0560833 -0.0135624 0.000116 0.0619178 -0.12213 0.0721964 2650 
3574 1 -0.0676943 -0.0218948 -0.0127453 0.000116 -1.38735 -0.0523963 7.37065 2650 
3191 1 -0.00985531 -0.000910646 -0.0127619 0.000656 -0.00555719 -0.00635765 0.0118908 2650 
1303 1 -0.067705 -0.000116217 -0.0126887 0.000116 -1.13437 0.000462443 6.06146 2650 
2525 1 -0.004063 -0.000540642 -0.013231 4.2e-05 0 -0.011753 0 2650 
2922 1 -0.00805815 0.00132545 -0.013358 0.000116 -0.00925852 -0.000802711 0.00675368 2650 
2512 1 -0.00655281 0.00129771 -0.0133057 0.000116 0.018779 -0.0192413 0.00230208 2650 
3316 1 -0.010043 0.0018191 -0.0129755 0.000423 -0.00552961 -0.00411585 -0.00161779 2650 
3239 1 -0.00806717 0.00230135 -0.012884 0.000116 -0.076466 0.114975 0.0819866 2650 
3917 1 -0.003984 0.00176036 -0.012703 0.000116 0 -0.011753 0 2650 
2059 1 -0.003583 0.00196936 -0.012756 0.000116 0 -0.011753 0 2650 
4374 1 -0.00949042 0.00282179 -0.0126905 4.2e-05 -0.00342399 0.0134868 -0.018776 2650 
1427 1 -0.002948 0.00430036 -0.013376 4.2e-05 0 -0.011753 0 2650 
3362 1 -0.00260501 0.00467924 -0.0129713 0.000116 0.000350619 -0.00253681 -0.00404217 2650 
2322 1 -0.00925472 0.00517465 -0.0132406 0.000656 -0.00463581 -0.0140818 0.00324309 2650 
4179 1 -0.00815034 0.00518375 -0.0128837 0.000423 -0.000889884 -0.0208242 0.00186897 2650 
1388 1 -0.00719435 0.00555413 -0.0132617 0.000116 -0.039288 0.0021603 0.0169103 2650 
963 1 -0.00679727 0.00683494 -0.012812 0.000116 0.00350227 -0.00324664 0.0156587 2650 
1250 1 -0.00934891 0.00726438 -0.0132914 0.000423 -0.0126021 -0.0099031 0.00355829 2650 
4257 1 -0.0083739 0.00720492 -0.0128133 0.000116 -0.00578911 -0.00907208 0.00958653 2650 