ITEM: TIMESTEP
10398474
ITEM: NUMBER OF ATOMS
4336
ITEM: BOX BOUNDS ff ff ff
-0.15 0.15
-0.15 0.06
-0.15 0.15
ITEM: ATOMS id type x y z radius vx vy vz density 
1753 1 -0.113711 -0.0631709 -0.0492522 4.2e-05 -8.93997 -0.0724184 1.63436 2650 
983 1 -0.109446 -0.0627663 0.00542182 4.2e-05 -8.22916 -0.0745772 7.36178 2650 
1952 1 -0.0863525 -0.0219915 -0.0520355 0.000116 -10.9316 -0.301097 2.30495 2650 
1609 1 -0.111402 -0.0129552 -0.0514427 0.000116 -11.0101 0.809059 1.81406 2650 
51 1 -0.00467422 -0.0490823 -0.068419 0.000423 -8.06313 -0.117172 0.548683 2650 
1903 1 -0.00888468 -0.0467555 -0.0679999 0.000423 -7.82175 -0.0281564 1.02873 2650 
1638 1 -0.0125036 -0.0600218 -0.0677396 0.000116 -5.75676 0.386781 1.05574 2650 
1462 1 -0.0150696 -0.0526413 -0.0668822 0.000423 -7.14826 0.180105 1.5496 2650 
1196 1 -0.0397984 -0.0520849 -0.056215 0.000116 -4.60512 0.444952 3.40671 2650 
3079 1 -0.0400257 -0.0481432 -0.0553961 0.000656 -6.64566 -0.0635142 4.76509 2650 
4288 1 -0.046072 -0.0459341 -0.0507971 0.000423 -5.46749 -0.0609613 4.94705 2650 
3409 1 -0.0478752 -0.0512822 -0.0487773 0.000656 -5.74916 -0.0304986 5.6556 2650 
2578 1 -0.0542883 -0.0483983 -0.0418854 0.000423 -5.22623 0.164398 6.70962 2650 
3570 1 -0.060702 -0.0571536 -0.0325621 0.000116 -3.78555 -0.172118 7.05689 2650 
1619 1 -0.0666254 -0.056896 -0.0174948 0.000116 -1.89064 -0.263405 7.18515 2650 
3943 1 -0.0684955 -0.0486397 -0.00797223 4.2e-05 -0.712245 0.677108 6.2016 2650 
482 1 -0.06855 -0.0604133 -0.00192437 0.000423 -0.201492 -0.00589458 7.29182 2650 
3812 1 -0.0686908 -0.0624691 0.0047838 0.000116 -0.112739 -0.84104 16.9089 2650 
1945 1 -0.0683115 -0.0476727 0.00886571 0.000116 0.941477 0.178173 7.20556 2650 
3440 1 -0.0638117 -0.0451766 0.0251177 0.000423 3.36886 0.0197615 8.56966 2650 
816 1 -0.0591989 -0.0515797 0.0346205 0.000423 3.6265 -0.383967 6.19241 2650 
2857 1 -0.0573856 -0.0461492 0.0371204 0.000656 4.17579 0.0320364 6.4754 2650 
2201 1 -0.0572075 -0.0514811 0.0373933 0.000656 4.42873 -0.074021 6.7844 2650 
3308 1 -0.0555864 -0.0497713 0.0401437 0.000423 4.13545 -0.0278276 5.75054 2650 
3154 1 -0.051714 -0.0500573 0.0455039 0.000116 5.19231 -0.784233 5.92332 2650 
1528 1 -0.0332977 -0.0490907 0.060301 0.000116 5.29637 -0.210321 2.92473 2650 
3957 1 -0.0305463 -0.0529377 0.0611231 0.000656 7.20224 -0.0573527 3.58328 2650 
3038 1 -0.0142595 -0.0573225 0.0673918 0.000116 5.83877 0.0952495 1.23692 2650 
4035 1 -0.00505314 -0.0415689 -0.0686989 0.000116 -8.10349 -0.0114939 0.591797 2650 
3040 1 -0.00225497 -0.0317715 -0.068848 0.000116 -7.26647 -0.0303326 0.224201 2650 
4255 1 -0.00331067 -0.0315058 -0.0688043 0.000116 -7.97863 0.985213 0.381479 2650 
3367 1 -0.00289686 -0.0289803 -0.0688233 0.000116 -7.33451 0.399379 0.30313 2650 
4268 1 -0.00207986 -0.023736 -0.0689265 4.2e-05 -6.81521 -0.298439 0.198616 2650 
2371 1 -0.00400675 -0.0235583 -0.0687674 0.000116 -7.16996 -0.101771 0.43947 2650 
2404 1 -0.0023166 -0.0236798 -0.0688449 0.000116 -7.06936 0.0527978 0.241332 2650 
981 1 -0.0021243 -0.0148554 -0.0689254 4.2e-05 -6.51472 0.0265337 0.204719 2650 
2310 1 -0.000869309 -0.0145914 -0.0689525 4.2e-05 -6.01703 -0.305303 0.077143 2650 
404 1 -0.00327728 -0.0109849 -0.068806 0.000116 -6.08383 0.546841 0.286724 2650 
3534 1 -0.00455526 -0.0434545 -0.0684266 0.000423 -8.09948 0.144663 0.539858 2650 
4316 1 -0.0072223 -0.043099 -0.0681959 0.000423 -8.3197 -0.0356343 0.87859 2650 
2091 1 -0.000228723 -0.0427897 -0.0683449 0.000656 -7.94439 0.0588094 0.00874682 2650 
343 1 -0.00807176 -0.0412595 -0.0681019 0.000423 -9.17878 0.0336667 1.09558 2650 
1612 1 -0.00579468 -0.0417262 -0.06864 0.000116 -8.60506 -0.314355 0.724052 2650 
355 1 -0.00844336 -0.040122 -0.0680554 0.000423 -7.71482 -0.193761 0.960604 2650 
4308 1 -0.00603011 -0.0400946 -0.0683122 0.000423 -8.87995 0.279587 0.784391 2650 
115 1 -0.00774867 -0.0393083 -0.0679056 0.000656 -7.72959 -0.174156 0.862872 2650 
3000 1 -0.00945209 -0.0380886 -0.0679183 0.000423 -7.88868 -0.132004 1.07259 2650 
2862 1 -0.00690886 -0.0353853 -0.0679944 0.000656 -7.61773 0.0481008 0.759628 2650 
2790 1 -0.00526522 -0.0349884 -0.0683759 0.000423 -7.39933 -0.063117 0.572846 2650 
1471 1 -0.00307859 -0.0349087 -0.068509 0.000423 -7.28132 -0.283097 0.315948 2650 
122 1 -0.00623157 -0.0341498 -0.0680578 0.000656 -7.42169 -0.0243064 0.665836 2650 
3089 1 -0.00430649 -0.031619 -0.0684412 0.000423 -7.33638 -0.029075 0.459158 2650 
239 1 -0.00222952 -0.0312027 -0.0685421 0.000423 -7.29832 -0.018119 0.234964 2650 
3330 1 -0.00545731 -0.0302272 -0.0683615 0.000423 -7.31176 -0.0238556 0.554346 2650 
1249 1 -0.00174603 -0.0305087 -0.0685559 0.000423 -7.27938 -0.031937 0.179375 2650 
3196 1 -0.00360894 -0.0295065 -0.0684834 0.000423 -7.30369 0.00268952 0.376801 2650 
1787 1 -0.00721311 -0.0266705 -0.0681956 0.000423 -7.36553 0.188358 0.719274 2650 
1499 1 -0.0105981 -0.0235432 -0.0680605 0.000116 -7.63662 0.285937 1.2182 2650 
3574 1 -0.00897975 -0.0230322 -0.0682957 0.000116 -7.40237 0.244675 0.976479 2650 
3964 1 -0.00710306 -0.0215768 -0.068209 0.000423 -7.35108 0.259143 0.771736 2650 
3140 1 -0.00465034 -0.0215568 -0.0686751 0.000116 -8.07797 -2.14584 0.630255 2650 
3470 1 -0.00862225 -0.0212997 -0.068342 0.000116 -6.83022 0.697753 0.863781 2650 
1987 1 -0.00474833 -0.0207528 -0.0681816 0.000656 -6.64271 0.147489 0.520411 2650 
862 1 -0.00706453 -0.0199626 -0.0685209 0.000116 -6.9668 0.714306 0.72173 2650 
921 1 -0.00366214 -0.0190999 -0.0684796 0.000423 -7.10426 -0.0595177 0.386547 2650 
365 1 -0.00420141 -0.0178666 -0.0684488 0.000423 -7.22747 -0.15627 0.432896 2650 
319 1 -0.00962861 -0.0139618 -0.0682077 0.000116 -6.39639 0.130065 1.04121 2650 
1503 1 -0.00813559 -0.0136967 -0.0683885 0.000116 -6.28845 0.0880431 0.73762 2650 
491 1 -0.00476278 -0.0141032 -0.0684107 0.000423 -6.20923 -0.0685278 0.414563 2650 
980 1 -0.0107963 -0.00886353 -0.0680771 4.2e-05 -6.59026 0.707106 1.03329 2650 
3986 1 -0.00298689 -0.00811553 -0.0685131 0.000423 -5.92203 -0.173728 0.269117 2650 
3069 1 -0.00807817 -0.00156028 -0.0684823 4.2e-05 -7.26214 -0.377681 0.859999 2650 
1326 1 -0.0107403 -0.0432786 -0.0674973 0.000656 -7.86555 0.0245404 1.2566 2650 
2237 1 -0.0103218 -0.0360097 -0.0677891 0.000423 -8.15396 0.0853645 1.20524 2650 
577 1 -0.0105802 -0.0321897 -0.0677325 0.000423 -7.25026 -0.0996549 1.08987 2650 
2242 1 -0.0105135 -0.0278903 -0.0677325 0.000423 -7.55446 -0.078689 1.14129 2650 
335 1 -0.00979888 -0.0270507 -0.0676218 0.000656 -7.53521 -0.0455521 1.03002 2650 
4319 1 -0.0119141 -0.0266927 -0.0675111 0.000423 -7.34724 -0.0440306 1.33932 2650 
2245 1 -0.0106512 -0.026393 -0.0677213 0.000423 -7.56164 -0.0245113 1.17163 2650 
2208 1 -0.00870148 -0.0262928 -0.0677826 0.000656 -7.57784 -0.00516916 0.955061 2650 
2251 1 -0.0113809 -0.0259806 -0.0676075 0.000423 -7.5022 0.034645 1.27834 2650 
4342 1 -0.0150297 -0.0246285 -0.067224 0.000116 -6.87267 0.0188222 1.53611 2650 
1111 1 -0.010233 -0.0251278 -0.0675699 0.000656 -7.65886 0.00416525 1.1678 2650 
4052 1 -0.0129335 -0.0192754 -0.0677278 4.2e-05 -6.78065 -0.130571 1.29781 2650 
2296 1 -0.0124655 -0.0174633 -0.0677378 0.000116 -6.53924 -0.132859 1.21017 2650 
670 1 -0.0129159 -0.0166229 -0.067109 0.000656 -6.65053 -0.0762044 1.33001 2650 
1958 1 -0.0124514 -0.0170967 -0.0677404 0.000116 -7.40336 0.0724244 1.36546 2650 
4132 1 -0.0116077 -0.0123295 -0.0678694 0.000116 -6.23845 0.222884 1.0709 2650 
3378 1 -0.0124344 -0.00619638 -0.0677303 0.000116 -6.18403 -0.404967 1.23101 2650 
94 1 -0.0139575 -0.00400496 -0.0674538 0.000116 -5.82697 0.0622539 1.21045 2650 
4187 1 -0.0122629 -0.0417071 -0.0670569 0.000423 -8.70337 -0.172344 1.3999 2650 
2327 1 -0.0172068 -0.0319617 -0.0663842 0.000423 -7.29949 -0.0200176 1.90369 2650 
2212 1 -0.0140979 -0.0284027 -0.0668756 0.000656 -7.38486 -0.0348809 1.54354 2650 
588 1 -0.0166137 -0.0222707 -0.0665348 0.000423 -6.93151 -0.341162 1.71244 2650 
2355 1 -0.0151823 -0.020147 -0.0668763 0.000423 -6.74612 -0.197054 1.51606 2650 
3539 1 -0.0158198 -0.0190508 -0.0667281 0.000423 -6.54093 -0.0985911 1.57055 2650 
2367 1 -0.0169031 -0.00105066 -0.0667775 0.000116 -6.79272 -0.248049 1.72106 2650 
3425 1 -0.0196823 -0.0393801 -0.0656928 0.000423 -7.95559 0.0513836 2.40389 2650 
4297 1 -0.0195971 -0.0333718 -0.0657188 0.000423 -6.57011 0.0302232 1.93996 2650 
2072 1 -0.0189847 -0.0290704 -0.0662166 0.000116 -6.96426 0.346409 1.98611 2650 
2705 1 -0.0202871 -0.0255675 -0.0658292 0.000116 -6.65126 0.0828323 2.04462 2650 
4221 1 -0.0193643 -0.021333 -0.0661061 0.000116 -7.54199 0.556944 2.20616 2650 
1312 1 -0.019236 -0.00937642 -0.0662208 4.2e-05 -4.34571 -1.67618 1.25319 2650 
4108 1 -0.0195722 -0.00739601 -0.0657263 0.000423 -4.35981 -0.146788 1.30376 2650 
2605 1 -0.0189525 -0.00627913 -0.0662253 0.000116 -4.33136 0.040767 1.26238 2650 
658 1 -0.0207444 -0.0025506 -0.0657632 4.2e-05 -6.28179 -0.108163 1.97997 2650 
4323 1 -0.0226439 -0.0220978 -0.0647315 0.000423 -6.81231 0.0910817 2.36759 2650 
4128 1 -0.0231827 -0.0141128 -0.0648662 0.000116 -6.44005 0.234971 2.29539 2650 
1699 1 -0.0226016 -0.0077763 -0.0647473 0.000423 -4.00894 -0.445565 1.40487 2650 
2028 1 -0.0227791 -0.0344601 -0.064685 0.000423 -6.58378 -0.0441083 2.30916 2650 
2559 1 -0.0244242 -0.025952 -0.0640817 0.000423 -6.63386 0.0233642 2.52312 2650 
4147 1 -0.0243888 -0.0244081 -0.0644219 0.000116 -6.2337 -0.297088 2.37379 2650 
2987 1 -0.0240275 -0.00685346 -0.0642314 0.000423 -4.63078 -0.519735 1.75907 2650 
1303 1 -0.0240047 -0.00013368 -0.0645659 0.000116 -5.73829 -0.00442785 2.13243 2650 
1568 1 -0.0255514 -0.0415823 -0.0636413 0.000423 -6.95348 -0.474762 2.79892 2650 
2010 1 -0.0259643 -0.030518 -0.0634738 0.000423 -6.73681 -0.0287596 2.75998 2650 
1466 1 -0.0259453 -0.00484792 -0.0634798 0.000423 -5.89793 0.16367 2.39273 2650 
3694 1 -0.026055 -0.00272389 -0.0637658 0.000116 -5.95112 -0.297838 2.42866 2650 
3382 1 -0.0269943 -0.000542853 -0.0633741 0.000116 -5.17758 -0.128869 2.20036 2650 
3314 1 -0.0276691 -0.0390571 -0.062748 0.000423 -6.89946 0.0316681 3.01404 2650 
3181 1 -0.0289991 -0.0371971 -0.0625638 4.2e-05 -5.58493 -1.08782 2.58881 2650 
1960 1 -0.0288803 -0.0251445 -0.0625374 0.000116 -6.31814 -0.0602573 2.91442 2650 
817 1 -0.0269666 -0.0252308 -0.0630533 0.000423 -6.61353 -0.0365761 2.83818 2650 
3329 1 -0.0273173 -0.0232721 -0.0629022 0.000423 -6.56817 -0.00733628 2.88104 2650 
2380 1 -0.0302953 -0.0241593 -0.061864 0.000116 -6.45718 0.147034 3.15821 2650 
844 1 -0.0306903 -0.0135029 -0.0616562 0.000116 -6.66641 0.0222825 3.28685 2650 
753 1 -0.0321098 -0.0334127 -0.0609424 0.000116 -6.10215 1.30004 3.21624 2650 
3192 1 -0.0298053 -0.0315795 -0.0615054 0.000656 -6.55069 -0.0115394 3.15278 2650 
1996 1 -0.0308331 -0.0287182 -0.0612561 0.000423 -6.58384 0.226435 3.31724 2650 
3671 1 -0.0310115 -0.0226163 -0.0611658 0.000423 -6.59246 0.288105 3.36215 2650 
1180 1 -0.0322886 -0.00548382 -0.0608429 0.000116 -5.35437 -0.115678 2.91196 2650 
2247 1 -0.0330645 -0.0305642 -0.0600808 0.000423 -6.57233 0.0660281 3.60617 2650 
2086 1 -0.0330579 -0.0100246 -0.060494 4.2e-05 -4.41566 -0.268711 2.31384 2650 
3349 1 -0.0346696 -0.0339075 -0.0595232 0.000116 -5.62749 -0.237284 3.26782 2650 
3304 1 -0.0336346 -0.031742 -0.0597633 0.000423 -5.81846 0.183344 3.26104 2650 
2865 1 -0.0341079 -0.0287154 -0.0592262 0.000656 -6.54318 -0.0379471 3.75937 2650 
250 1 -0.0338037 -0.0267913 -0.0596675 0.000423 -6.72959 0.153808 3.81406 2650 
671 1 -0.0328627 -0.0263304 -0.0599267 0.000656 -6.72998 0.141875 3.73334 2650 
1445 1 -0.0337312 -0.0177506 -0.0597074 0.000423 -6.01342 0.192059 3.44034 2650 
2118 1 -0.0352927 -0.0283879 -0.0587991 0.000423 -6.49007 0.00766032 3.89326 2650 
3688 1 -0.0364802 -0.0270284 -0.0584315 0.000116 -5.03498 -0.65173 3.17309 2650 
3930 1 -0.035359 -0.00410195 -0.0591095 0.000116 -3.5105 0.580379 2.14518 2650 
2037 1 -0.0377059 -0.0403612 -0.0576475 0.000116 -5.49592 -0.0322487 3.59336 2650 
2779 1 -0.0365946 -0.0291368 -0.0579886 0.000423 -5.68379 0.134579 3.46497 2650 
208 1 -0.0373396 -0.0144327 -0.0578853 0.000116 -6.30941 -0.126763 4.07199 2650 
3785 1 -0.0367014 -0.00785083 -0.0582922 0.000116 -5.45755 -0.0838132 3.43236 2650 
4305 1 -0.0361283 -0.0077221 -0.0582885 0.000423 -5.46195 0.016566 3.40359 2650 
3134 1 -0.0376454 -0.00346936 -0.0576871 0.000116 -4.39374 0.0934058 2.89439 2650 
2274 1 -0.0384472 -0.0269834 -0.0571254 0.000116 -6.84071 -0.294419 4.61729 2650 
1751 1 -0.0381007 -0.0253737 -0.0574622 4.2e-05 -6.81398 0.00681237 4.50834 2650 
2031 1 -0.0394508 -0.00778093 -0.056094 0.000423 -4.66734 0.40892 3.29101 2650 
1157 1 -0.0396363 -0.00704274 -0.0563379 0.000116 -4.762 0.519219 3.36634 2650 
399 1 -0.0413167 -0.0381486 -0.0551169 0.000116 -6.72812 1.18062 5.04359 2650 
2820 1 -0.0416991 -0.00815832 -0.0548291 0.000116 -4.77095 0.343242 3.61801 2650 
1852 1 -0.0426935 -0.0231302 -0.0540369 0.000116 -4.76358 -0.624596 3.66781 2650 
2418 1 -0.0439917 -0.0443356 -0.053102 4.2e-05 -4.4173 0.685072 3.66535 2650 
2019 1 -0.0431087 -0.0191542 -0.0533349 0.000423 -4.73179 -0.333718 3.83947 2650 
814 1 -0.0438306 -0.0128888 -0.0527444 0.000423 -4.98995 -0.205714 4.1588 2650 
1734 1 -0.0450394 -0.0106129 -0.0521209 0.000116 -3.91215 -0.328349 3.36336 2650 
197 1 -0.0464156 -0.0208627 -0.050898 0.000116 -5.605 0.130812 5.10393 2650 
4068 1 -0.0463201 -0.0153324 -0.0505706 0.000423 -5.33503 -0.084427 4.88146 2650 
2544 1 -0.0459141 -0.0146015 -0.0509404 0.000423 -5.44394 0.0635548 4.89514 2650 
1955 1 -0.046039 -0.0135456 -0.0512392 0.000116 -5.19727 0.0330353 4.67554 2650 
2198 1 -0.0469526 -4.19998e-05 -0.0505036 4.2e-05 -4.85989 0.000141681 4.52306 2650 
672 1 -0.0467791 -0.0361026 -0.0498302 0.000656 -5.99117 -0.0531831 5.61911 2650 
3863 1 -0.0467426 -0.0205018 -0.0501816 0.000423 -5.63195 -0.18681 5.24563 2650 
3741 1 -0.0474377 -0.0194591 -0.0495235 0.000423 -5.56693 -0.134174 5.32565 2650 
3093 1 -0.0475205 -0.0115633 -0.0494446 0.000423 -3.06128 -0.399534 2.91015 2650 
3381 1 -0.0481852 -0.00923976 -0.0492269 0.000116 -5.19807 -0.0717322 5.09059 2650 
1924 1 -0.0486028 -0.0314986 -0.0483824 0.000423 -5.02525 -0.0790972 5.07741 2650 
971 1 -0.0492468 -0.0107922 -0.0481643 0.000116 -3.38541 -0.606623 3.46269 2650 
1378 1 -0.0485787 -0.00492512 -0.0488382 0.000116 -4.14465 0.371156 4.10283 2650 
691 1 -0.0491443 -0.0449459 -0.0478306 0.000423 -5.28408 0.0498415 5.41387 2650 
2051 1 -0.049821 -0.0361145 -0.0475695 0.000116 -4.76756 0.552561 4.9969 2650 
3959 1 -0.0494933 -0.0261745 -0.0474704 0.000423 -5.14793 0.0836965 5.36634 2650 
2039 1 -0.0497392 -0.0159386 -0.0476551 0.000116 -4.55323 -0.54494 4.783 2650 
4285 1 -0.0488935 -0.0098677 -0.0480881 0.000423 -3.09054 -0.324283 3.15825 2650 
518 1 -0.0502466 -0.0229701 -0.0471196 0.000116 -4.06451 0.00628506 4.3238 2650 
353 1 -0.049841 -0.0216536 -0.0471045 0.000423 -5.07374 -0.0932493 5.38867 2650 
744 1 -0.0501713 -0.000158025 -0.0472 0.000116 -3.88407 -0.0087389 4.14021 2650 
2817 1 -0.0512313 -0.0268007 -0.0460472 0.000116 -5.20805 -0.810328 5.78952 2650 
3155 1 -0.0510239 -0.000968079 -0.0462767 0.000116 -3.98798 -0.217284 4.38793 2650 
1591 1 -0.0514873 -0.0399021 -0.045299 0.000423 -5.07276 -0.13592 5.76587 2650 
3055 1 -0.0516849 -0.0135353 -0.0455374 0.000116 -4.75981 -0.162494 5.42044 2650 
56 1 -0.0511208 -0.0135828 -0.0457123 0.000423 -4.78089 -0.106951 5.35598 2650 
424 1 -0.0521866 -0.0130614 -0.0449612 0.000116 -4.67184 0.240149 5.42684 2650 
3522 1 -0.0521467 -0.027857 -0.0445389 0.000423 -4.9166 -0.0675338 5.74069 2650 
1784 1 -0.0519292 -0.0153284 -0.0447921 0.000423 -4.61534 -0.159468 5.37295 2650 
1082 1 -0.0523601 -0.0132035 -0.0447599 0.000116 -2.30117 -0.169251 2.68588 2650 
2775 1 -0.0530137 -0.0244556 -0.0435027 0.000423 -4.67007 -0.317883 5.71169 2650 
327 1 -0.05399 -0.0405898 -0.0428964 4.2e-05 -4.20085 0.253336 5.27567 2650 
827 1 -0.054545 -0.0295937 -0.042051 0.000116 -4.48038 0.263098 5.67672 2650 
82 1 -0.0544053 -0.0248122 -0.0422455 0.000116 -4.07827 0.112534 5.16048 2650 
538 1 -0.0546798 -0.00955647 -0.0418676 0.000116 -3.45658 0.490052 4.34416 2650 
1938 1 -0.0545541 -0.00897385 -0.0420386 0.000116 -3.15482 0.0428947 3.87729 2650 
3619 1 -0.0545471 -0.00574147 -0.0421805 4.2e-05 -3.74765 -0.215431 4.75802 2650 
3873 1 -0.0539463 -0.00273889 -0.0423408 0.000423 -3.77237 -0.232406 4.86991 2650 
4320 1 -0.0544565 -0.0198548 -0.0416797 0.000423 -4.63534 -0.0689352 6.06307 2650 
1798 1 -0.0545909 -0.0189462 -0.0414942 0.000423 -4.4999 0.0935527 5.93006 2650 
2395 1 -0.0561085 -0.0120498 -0.0399254 0.000116 -4.72365 0.975247 6.71577 2650 
4286 1 -0.0563797 -0.0241136 -0.0390324 0.000423 -4.36271 -0.047927 6.34977 2650 
800 1 -0.0566788 -0.032937 -0.0385931 0.000423 -3.22331 0.178752 4.63105 2650 
1214 1 -0.0565737 -0.0233001 -0.0383476 0.000656 -4.28293 -0.0304526 6.34138 2650 
426 1 -0.057389 -0.0224835 -0.0380977 0.000116 -3.35484 -0.673098 5.02944 2650 
1323 1 -0.0576557 -0.0298217 -0.0366978 0.000656 -4.0847 -0.0388676 6.3776 2650 
3989 1 -0.0578812 -0.0261168 -0.0367756 0.000423 -4.07419 -0.0259711 6.44798 2650 
850 1 -0.0590449 -0.0271718 -0.0354672 0.000116 -3.98314 -0.297581 6.82134 2650 
4056 1 -0.0582926 -0.0271782 -0.0356694 0.000656 -3.88686 -0.0693677 6.36518 2650 
3005 1 -0.0586115 -0.0261497 -0.0356032 0.000423 -3.67575 0.0123058 6.12906 2650 
3960 1 -0.0582774 -0.0255926 -0.0361448 0.000423 -3.87411 0.233694 6.19852 2650 
167 1 -0.0586734 -0.0251256 -0.0360856 0.000116 -3.71433 0.0951162 6.00852 2650 
229 1 -0.0582645 -0.0240858 -0.0357252 0.000656 -3.66353 0.0590459 5.9646 2650 
1990 1 -0.0588838 -0.0282 -0.0346978 0.000656 -3.88718 -0.280534 6.54674 2650 
159 1 -0.0590396 -0.027145 -0.0348905 0.000423 -3.80495 -0.255357 6.56995 2650 
3636 1 -0.0594582 -0.0187532 -0.0341691 0.000423 -3.70983 0.0675878 6.41635 2650 
1417 1 -0.0595545 -0.0178936 -0.0346158 0.000116 -3.20129 -0.024592 5.54805 2650 
4325 1 -0.0593933 -0.0174944 -0.0342823 0.000423 -3.09561 0.126296 5.34377 2650 
955 1 -0.0596491 -0.000116087 -0.0344522 0.000116 -3.29215 0.000151992 5.69413 2650 
3337 1 -0.0598491 -0.0190649 -0.0334816 0.000423 -3.58345 -0.220703 6.39368 2650 
3920 1 -0.0602862 -0.0119335 -0.0333256 0.000116 -3.33198 -0.323742 6.05705 2650 
3786 1 -0.0604174 -0.0109006 -0.0330882 0.000116 -3.34973 -0.176919 6.14512 2650 
2877 1 -0.0598986 -0.010594 -0.0333957 0.000423 -3.39225 -0.0595208 6.06697 2650 
2329 1 -0.0598576 -0.00309195 -0.0334656 0.000423 -2.60412 -0.26031 4.62357 2650 
3807 1 -0.0606151 -0.0209975 -0.0327228 0.000116 -3.1479 -0.401435 5.83377 2650 
416 1 -0.060841 -0.0166811 -0.0323012 0.000116 -3.29107 -0.397033 6.21675 2650 
375 1 -0.0603077 -0.0155128 -0.0326479 0.000423 -3.11955 0.0681311 5.74342 2650 
4133 1 -0.0610563 -0.0429867 -0.0318925 0.000116 -3.34285 -0.343946 6.38127 2650 
4213 1 -0.0610964 -0.0274346 -0.0311483 0.000423 -3.30199 -0.105349 6.46153 2650 
3963 1 -0.0611402 -0.0165284 -0.0310614 0.000423 -3.20192 0.0246542 6.30536 2650 
3204 1 -0.0611008 -0.0135767 -0.0311403 0.000423 -3.11102 0.180194 6.11717 2650 
2680 1 -0.0610183 -0.00503548 -0.0313018 0.000423 -3.01701 2.22348 5.84183 2650 
2833 1 -0.061685 -0.0381884 -0.0306584 0.000116 -3.13852 -0.328149 6.31371 2650 
2055 1 -0.0617655 -0.0329838 -0.0304981 0.000116 -3.02845 -0.251833 6.13725 2650 
2672 1 -0.0615819 -0.0250135 -0.0301764 0.000423 -3.3479 -0.20264 6.79926 2650 
1455 1 -0.0616027 -0.0201197 -0.0301341 0.000423 -3.09861 -0.208532 6.34448 2650 
306 1 -0.0617924 -0.000116087 -0.0304414 0.000116 -2.88541 -0.00186239 5.87226 2650 
2728 1 -0.0619711 -0.0110354 -0.0300779 0.000116 -2.75001 -0.0837819 5.65684 2650 
1197 1 -0.0619141 -0.00494363 -0.0301938 0.000116 -1.7868 -0.0141658 3.63078 2650 
626 1 -0.0619988 -0.00481574 -0.0300193 0.000116 -1.74405 -0.020333 3.65863 2650 
872 1 -0.0618085 -0.00221952 -0.0305756 4.2e-05 -2.9714 -0.139668 6.01737 2650 
1493 1 -0.0622873 -0.0364856 -0.0294164 0.000116 -2.56657 -0.307918 5.41108 2650 
2591 1 -0.06223 -0.0167972 -0.0295367 0.000116 -3.09267 -0.123526 6.52558 2650 
1716 1 -0.0625311 -0.0301578 -0.0288957 0.000116 -3.31793 0.127973 7.20218 2650 
3260 1 -0.0625242 -0.0240947 -0.0289089 0.000116 -3.34222 -0.064527 7.2281 2650 
1193 1 -0.000116831 -0.0037638 -0.0288764 0.000116 -0.0170636 -0.0761841 -4.21749 2650 
1185 1 -0.0630504 -0.0298618 -0.0277433 0.000116 -2.99894 -0.598039 6.80877 2650 
574 1 -0.0625685 -0.027294 -0.0280744 0.000423 -2.91915 0.0577748 6.51849 2650 
4069 1 -0.0627773 -0.0266227 -0.0276036 0.000423 -2.87749 0.0721968 6.50644 2650 
3339 1 -0.0626261 -0.0244021 -0.0279446 0.000423 -3.08261 -0.229713 6.93719 2650 
2298 1 -0.063246 -0.0249651 -0.0272942 0.000116 -2.94277 0.263772 6.7955 2650 
2117 1 -0.0629054 -0.023732 -0.0273077 0.000423 -2.9609 -0.177076 6.76935 2650 
2386 1 -0.0631402 -0.022895 -0.0275364 0.000116 -2.98005 -0.0765247 6.82215 2650 
758 1 -0.0635745 -0.0259846 -0.0265196 0.000116 -2.91811 0.0752633 6.98085 2650 
3276 1 -0.0636891 -0.0259264 -0.0262434 0.000116 -2.83254 -0.160214 6.92647 2650 
3605 1 -0.0637769 -0.0251059 -0.0260289 0.000116 -2.84465 -0.141533 6.93857 2650 
1510 1 -0.0635642 -0.0165747 -0.0265438 0.000116 -2.75996 0.581455 6.61157 2650 
1079 1 -0.0637984 -0.0110128 -0.0259766 0.000116 -2.8417 0.55804 6.99594 2650 
625 1 -0.0636041 -0.0066663 -0.0264484 0.000116 -2.86867 0.721051 6.89369 2650 
4204 1 -0.0635442 -0.0256646 -0.0257904 0.000423 -2.77212 -0.208416 6.94653 2650 
1436 1 -0.063364 -0.0238494 -0.0256156 0.000656 -2.87091 -0.525508 7.16481 2650 
440 1 -0.00137977 -0.00367154 -0.0259782 4.2e-05 -0.194403 -0.0683884 -3.66019 2650 
1593 1 -0.0638873 -0.0257473 -0.0249275 0.000423 -2.7369 -0.139546 7.0046 2650 
2048 1 -0.0644152 -0.0135477 -0.0244063 0.000116 -2.48758 0.764303 6.545 2650 
3580 1 -0.0641354 -0.00864743 -0.0251333 0.000116 -2.58393 0.47625 6.61439 2650 
1447 1 -0.0641742 -0.030323 -0.0241795 0.000423 -2.54337 -0.2333 6.73094 2650 
2717 1 -0.0645734 -0.0279778 -0.0239849 0.000116 -1.66967 -1.42753 4.47597 2650 
3137 1 -0.0649647 -0.00109511 -0.0229034 0.000116 -1.80572 0.0421572 5.1214 2650 
390 1 -0.0650369 -0.0260067 -0.0226978 0.000116 -2.2425 -0.0299913 6.4429 2650 
2414 1 -0.0425738 -0.00416065 -0.0198982 4.2e-05 -6.56739 -0.103209 -3.06947 2650 
3881 1 -0.0657357 -0.0286942 -0.0194315 0.000423 -2.03323 -0.0625793 6.78841 2650 
3673 1 -0.00329226 -0.00706569 -0.0193798 0.000423 -0.336236 -1.36892 -1.73282 2650 
848 1 -0.0131808 -0.00378528 -0.0190154 0.000116 -1.93361 -0.077999 -2.7887 2650 
2765 1 -0.0662069 -0.0403906 -0.0178775 0.000423 -1.91111 0.0111222 7.03928 2650 
831 1 -0.0664625 -0.0155086 -0.0180374 0.000116 -1.36641 -0.55621 5.37583 2650 
341 1 -0.0661904 -0.0220357 -0.0170269 0.000656 -1.84635 -0.00655539 7.25796 2650 
606 1 -0.000183 0.00142502 -0.016592 0.000116 0 -0.011753 0 2650 
4227 1 -0.000461874 0.00382051 -0.0168206 0.000116 0.00143204 -0.0228975 -0.0290312 2650 
2520 1 -0.000243515 0.00489357 -0.0166845 4.2e-05 0.00318265 0.000380138 0.00682554 2650 
2182 1 -0.00155857 0.0133405 -0.0165808 0.000116 0.00266263 0.0360122 0.0211071 2650 
2851 1 -0.00142703 0.0146374 -0.016786 4.2e-05 -0.261069 -0.140633 0.0469352 2650 
2895 1 -0.066669 -0.022108 -0.0160626 0.000423 -1.74314 -0.000184179 7.31415 2650 
2976 1 -0.0664127 -0.014962 -0.0161112 0.000656 -1.42065 0.0516665 5.86484 2650 
1424 1 -0.0670247 -0.00828327 -0.0161719 4.2e-05 -1.21489 1.33881 5.11627 2650 
3477 1 -0.00543616 -0.00369985 -0.0161988 0.000116 -0.571164 -0.0912708 -1.73264 2650 
2013 1 -0.00298231 0.0030746 -0.0158852 0.000423 -0.00154235 0.00221798 0.00156406 2650 
2301 1 -0.0043258 0.00347484 -0.0161079 4.2e-05 -0.00116259 -0.0070103 0.00459775 2650 
2283 1 -0.00352852 0.00438608 -0.0163884 0.000116 -0.00010552 0.00956354 0.000789399 2650 
889 1 -0.00166791 0.00434591 -0.0158473 0.000656 0.0239239 0.0130736 -0.0545072 2650 
1679 1 -0.0042143 0.00474792 -0.0157995 0.000423 -0.00453172 0.0157125 0.00260684 2650 
978 1 -0.00239213 0.00630226 -0.0164053 0.000116 0.0180122 -0.00353228 -0.00159853 2650 
3365 1 -0.00191137 0.0055688 -0.0162149 0.000116 0.0120999 0.0333262 -0.0498495 2650 
3934 1 -0.001977 0.00618702 -0.016218 0.000116 0 -0.011753 0 2650 
938 1 -0.00150795 0.00992184 -0.0159206 0.000116 -0.00119823 0.000558801 -0.00633771 2650 
302 1 -0.000966053 0.00977592 -0.0162832 0.000116 -0.0434127 0.0256721 -0.0191129 2650 
1483 1 -0.000480426 0.0103316 -0.0164917 0.000423 -0.00134867 0.0112238 -0.0085204 2650 
3007 1 -0.00280401 0.0112994 -0.0159799 0.000423 -0.00754521 0.0118776 -0.00214285 2650 
371 1 -0.000343951 0.0117821 -0.0161733 0.000423 -0.00963196 0.00951459 -0.00479058 2650 
188 1 -0.00289421 0.0131297 -0.0162041 0.000116 -0.0148612 0.0228045 0.00418427 2650 
2713 1 -0.000709694 0.0152491 -0.0159987 0.000116 0.00037122 0.035974 0.00535071 2650 
3165 1 -0.00329969 0.0182632 -0.0163937 0.000116 -0.247414 0.158145 0.0441213 2650 
1957 1 -0.067082 -0.0217132 -0.0156511 0.000116 -1.7112 0.178349 7.32365 2650 
30 1 -0.00201041 -0.00195448 -0.0155608 0.000423 -0.0139928 -0.0214008 0.00726417 2650 
3599 1 -0.000715289 -0.00166739 -0.0152944 0.000116 0.0260231 -0.00977207 -0.00117121 2650 
2399 1 -0.002418 0.00163902 -0.015541 0.000116 0 -0.011753 0 2650 
2474 1 -0.000198509 0.00218708 -0.015623 0.000423 0.0307748 -0.0136667 -0.043701 2650 
3637 1 -0.00530376 0.00402967 -0.0154185 0.000423 -0.00704251 0.0124689 0.006236 2650 
1611 1 -0.0024023 0.0045007 -0.0155902 0.000116 0.0513704 -0.0152435 0.0155029 2650 
4300 1 -2.34027e-05 0.00408261 -0.0150139 0.000423 0.0101839 0.00179298 -0.0226263 2650 
1192 1 -0.00732393 0.00618762 -0.0150331 0.000116 0.00510585 0.0133553 0.012363 2650 
3830 1 -0.006879 0.00773902 -0.015411 4.2e-05 0 -0.011753 0 2650 
2438 1 -0.00614965 0.00725165 -0.0151309 0.000423 -0.00468347 -0.000292455 -0.00123863 2650 
2726 1 -0.000417255 0.00894792 -0.0154457 0.000116 -0.00741369 0.00988612 -0.041436 2650 
3150 1 -0.00188188 0.0102592 -0.0154077 0.000116 -0.0182263 -0.0087302 -0.0269448 2650 
2781 1 -0.00592528 0.011107 -0.0150783 0.000423 0.00977627 0.0105103 0.0120467 2650 
70 1 -0.00357117 0.0126733 -0.0156577 0.000116 0.0560864 0.0328811 0.00597028 2650 
2793 1 -0.000991466 0.0127673 -0.0152092 0.000423 0.00400332 0.0260717 0.000754087 2650 
3051 1 -0.00603048 0.0189405 -0.0156888 0.000116 0.163555 -0.227841 -0.0207843 2650 
93 1 -0.00670569 0.0193889 -0.0154778 0.000116 0.0683401 0.0488097 -0.0337926 2650 
2466 1 -0.00400592 0.0221372 -0.0153013 0.000423 0.0618857 0.0331724 -0.00268308 2650 
2585 1 -0.00144307 0.0261854 -0.0151093 0.000116 -0.0221426 0.0759057 0.0070692 2650 
1717 1 -0.0037473 0.0295714 -0.0154255 0.000116 -0.014717 0.0706098 -0.0348682 2650 
4244 1 -0.00253198 -0.00299697 -0.0143952 0.000116 -0.0436806 -0.00994679 0.0125723 2650 
1053 1 -0.007469 -0.00220298 -0.014946 0.000116 0 -0.011753 0 2650 
736 1 -0.00806387 -0.00144687 -0.0144369 0.000116 -0.0307431 -0.0170391 0.0144389 2650 
1763 1 -0.00415479 -0.00151893 -0.0147541 0.000656 0.0110508 0.03864 0.047043 2650 
3576 1 -0.00164342 -0.00140813 -0.0149012 0.000116 0.0561059 0.00120064 -0.0311085 2650 
509 1 -0.00775212 -0.000680021 -0.014406 0.000116 -0.00480979 -0.0076817 0.0108723 2650 
857 1 -0.00635619 0.00303732 -0.0148251 0.000116 -0.0623021 0.0193526 0.00200378 2650 
3364 1 -0.00675012 0.00822662 -0.0142949 0.000116 -0.00179506 0.0163753 -0.0232219 2650 
581 1 -0.0056076 0.00808492 -0.0144854 0.000423 0.000441693 0.00100922 0.00165067 2650 
1827 1 -0.00376985 0.00815923 -0.0142996 0.000116 0.0445821 -0.0304485 -0.00868089 2650 
233 1 -0.00358894 0.00891119 -0.0147056 0.000423 0.00841442 -0.00267664 0.00454736 2650 
86 1 -0.00466507 0.0106767 -0.014949 0.000116 -0.0196067 0.0126222 0.000798653 2650 
2969 1 -0.00252642 0.0107076 -0.0149408 0.000656 -0.00667616 0.014076 0.00443217 2650 
1228 1 -0.00227302 0.0131434 -0.0148012 0.000423 -0.0165199 0.0339339 0.00467854 2650 
3838 1 -0.00528811 0.0136407 -0.0147134 0.000656 0.0059045 0.0308137 -0.0288407 2650 
3644 1 -0.00125757 0.0137472 -0.0149578 0.000423 -0.00424564 0.0328325 0.0133159 2650 
2924 1 -0.0082369 0.0161756 -0.0145271 0.000116 -0.0500795 0.0331408 0.0243033 2650 
1776 1 -0.00487092 0.0227129 -0.0142317 0.000423 -0.10193 0.150061 -0.136021 2650 
4234 1 -0.00489799 0.0330745 -0.0149792 0.000116 0.00512064 0.0508026 0.0366661 2650 
1195 1 -0.00409481 0.0335899 -0.0147005 0.000116 0.0557766 0.0782116 -0.0138054 2650 
2614 1 -0.000496779 0.0536562 -0.0145809 0.000116 -0.0792369 -0.0730102 0.0417576 2650 
2863 1 -0.00105133 0.0548141 -0.0147621 0.000656 0.0828395 0.112062 0.0238951 2650 
3516 1 -0.0670295 -0.0380151 -0.0133507 0.000656 -1.57972 0.0194985 7.98266 2650 
4138 1 -0.0674359 -0.0366914 -0.014026 0.000116 -1.26132 0.314413 6.11728 2650 
2819 1 -0.0674621 -0.0361916 -0.0138799 0.000116 -1.41039 0.0395628 6.92435 2650 
3011 1 -0.000772499 -0.00195722 -0.0141222 0.000423 0.0180353 -0.0317081 -0.0392676 2650 
1991 1 -0.00808769 0.000215861 -0.0139565 0.000656 -0.0192457 -0.00223252 0.00858771 2650 
2666 1 -0.00703791 0.000579142 -0.0142096 0.000423 -0.120334 0.137813 -0.0175693 2650 
2609 1 -0.00832835 0.00094731 -0.0136347 0.000116 -0.00705034 0.0126459 0.00789545 2650 
2922 1 -0.00795128 0.00133471 -0.0134359 0.000116 -0.00925852 -0.000802711 0.00675368 2650 
3239 1 -0.00718452 0.000974189 -0.0138304 0.000116 -0.076466 0.114975 0.0819866 2650 
2473 1 -0.00851968 0.00164889 -0.0140156 0.000423 0.0164368 -0.00639214 -0.0235738 2650 
2913 1 -0.00947494 0.0034846 -0.0136011 0.000116 -0.0031719 -0.0208365 0.00893463 2650 
763 1 -0.00705536 0.00372486 -0.0135001 4.2e-05 -0.0107376 -0.0192397 -0.014763 2650 
220 1 -0.00334136 0.00356822 -0.0138499 4.2e-05 0.00197382 0.00663681 0.00671825 2650 
3787 1 -0.00680075 0.00401201 -0.0141972 0.000116 -0.0024271 -0.00223267 -0.0195234 2650 
1288 1 -0.002467 0.00536802 -0.014044 0.000116 0 -0.011753 0 2650 
1388 1 -0.00674085 0.0055292 -0.0134569 0.000116 -0.039288 0.0021603 0.0169103 2650 
3515 1 -0.00844774 0.00653199 -0.0137296 0.000656 -0.00454215 -0.00749919 0.00616721 2650 
1618 1 -0.00959398 0.00758163 -0.0137729 0.000116 0.0059414 0.00192455 -0.00369393 2650 