ITEM: TIMESTEP
9750594
ITEM: NUMBER OF ATOMS
4345
ITEM: BOX BOUNDS ff ff ff
-0.15 0.15
-0.15 0.06
-0.15 0.15
ITEM: ATOMS id type x y z radius vx vy vz density 
406 1 -0.109398 -0.0188761 0.0588866 0.000116 -5.47373 0.13249 10.1827 2650 
1317 1 -0.09778 -0.0405383 0.0689887 4.2e-05 -4.10074 0.0672848 11.5269 2650 
2487 1 -0.0121673 -0.0487875 -0.0677997 0.000116 -9.75224 0.00383131 1.75466 2650 
3957 1 -0.0162752 -0.0522578 -0.0663809 0.000656 -7.60181 0.00373804 1.8701 2650 
3154 1 -0.0226404 -0.0566667 -0.0650569 0.000116 -5.32884 0.749304 1.83512 2650 
3753 1 -0.0575336 -0.054387 -0.0373056 0.000423 -3.82156 0.0884701 5.83509 2650 
3038 1 -0.0621708 -0.0585948 -0.0296604 0.000116 -2.53808 0.0062773 5.31894 2650 
1314 1 -0.067881 -0.0570894 -0.0120698 4.2e-05 -1.42402 1.19484 7.93279 2650 
8 1 -0.0673978 -0.0487567 -0.0111448 0.000656 -1.60683 0.0445459 9.71525 2650 
3331 1 -0.0685377 -0.0535102 -0.00235983 0.000423 -0.235931 0.100246 6.48066 2650 
1550 1 -0.0676621 -0.0466483 0.00965336 0.000656 1.0276 -0.12924 7.2919 2650 
3840 1 -0.0644591 -0.0474346 0.0227211 0.000656 2.74005 -0.0616637 7.69478 2650 
4009 1 -0.0628279 -0.0494622 0.0282443 0.000116 2.46409 -0.374484 5.50624 2650 
312 1 -0.0604321 -0.0486315 0.0330604 0.000116 3.15128 0.837921 5.74086 2650 
394 1 -0.00477817 -0.0265298 -0.068704 0.000116 -5.56837 0.551509 0.276799 2650 
437 1 -0.000687545 -0.00994517 -0.0689545 4.2e-05 -6.81732 -0.112135 0.0576765 2650 
3845 1 -0.00778308 -0.0408166 -0.0679021 0.000656 -8.03873 -0.0917899 0.952005 2650 
3308 1 -0.00439679 -0.0409534 -0.0684362 0.000423 -6.38509 -0.786421 0.417804 2650 
816 1 -0.000768498 -0.038465 -0.0685739 0.000423 -6.51321 -0.657239 0.084762 2650 
2238 1 -0.00556567 -0.0376446 -0.0683468 0.000423 -7.23295 0.35742 0.627463 2650 
4173 1 -0.000843971 -0.0370409 -0.0683401 0.000656 -5.4456 0.0499639 0.118295 2650 
902 1 -0.0087172 -0.0345012 -0.0680087 0.000423 -7.08053 -0.220049 0.897688 2650 
3366 1 -0.00710784 -0.0321136 -0.0685001 0.000116 -6.90925 -0.263832 0.793473 2650 
2436 1 -0.00220513 -0.0303557 -0.0685423 0.000423 -6.98494 -0.111309 0.232459 2650 
1475 1 -0.00375305 -0.0281891 -0.0684744 0.000423 -6.10103 -0.0154995 0.193057 2650 
3198 1 -0.00372243 -0.0207443 -0.0684768 0.000423 -7.14419 -0.12905 0.392341 2650 
2717 1 -0.00122737 -0.00943171 -0.0685056 0.000116 -3.26735 -0.362608 -0.140477 2650 
107 1 -0.011802 -0.00660541 -0.0679341 4.2e-05 -5.77728 -0.510305 1.04709 2650 
2966 1 -0.00862085 -0.0329628 -0.0677901 0.000656 -7.1775 -0.110301 0.881493 2650 
3426 1 -0.010876 -0.0293935 -0.0677077 0.000423 -6.45106 -0.109847 1.03976 2650 
4142 1 -0.0153689 -0.0268661 -0.0671479 0.000116 -6.04167 0.255226 1.37365 2650 
1601 1 -0.0140408 -0.0264078 -0.0674378 0.000116 -5.2776 -0.730353 1.11771 2650 
507 1 -0.0146949 -0.0234998 -0.0672984 0.000116 -4.58224 0.323939 0.983688 2650 
940 1 -0.0139395 -0.022586 -0.0674587 0.000116 -6.08454 0.127206 1.24341 2650 
3647 1 -0.0107472 -0.0118074 -0.0677289 0.000423 -5.8483 -0.135528 0.901907 2650 
4149 1 -0.0155125 -0.00789738 -0.0671148 0.000116 -4.6849 -0.405902 1.07815 2650 
4263 1 -0.0156082 -0.00431741 -0.0671683 4.2e-05 -3.62685 -0.0379657 0.874751 2650 
897 1 -0.015792 -0.0425118 -0.0667346 0.000423 -7.17961 0.00659407 1.70168 2650 
1278 1 -0.0180279 -0.0218828 -0.0664828 0.000116 -7.46617 -0.329222 2.01806 2650 
103 1 -0.017316 -0.020151 -0.0667486 4.2e-05 -3.49909 -0.123163 0.899117 2650 
3483 1 -0.0157324 -0.00408538 -0.0670634 0.000116 -3.49642 0.289947 0.833113 2650 
4153 1 -0.0169382 -0.00378788 -0.066769 0.000116 -6.13976 -0.411727 1.57043 2650 
1832 1 -0.0196411 -0.000116017 -0.0660245 0.000116 -6.92084 -0.000338661 2.06884 2650 
2954 1 -0.019415 -0.000116024 -0.0660911 0.000116 -6.93061 0.000617117 2.03197 2650 
38 1 -0.0208497 -0.035649 -0.0653321 0.000423 -5.45463 -0.151189 1.71359 2650 
1175 1 -0.0229846 -0.0317107 -0.0649362 0.000116 -5.11059 0.082937 1.82793 2650 
3135 1 -0.0222273 -0.026145 -0.0651992 0.000116 -5.19808 -0.0561027 1.77034 2650 
1052 1 -0.0234176 -0.00535643 -0.0647814 0.000116 -5.10436 -0.212337 1.83555 2650 
3232 1 -0.0208542 -0.00500046 -0.0653307 0.000423 -5.78086 -0.355492 1.84735 2650 
2788 1 -0.0224898 -0.00196071 -0.0647855 0.000423 -6.20166 0.160674 2.15228 2650 
871 1 -0.0253465 -0.019482 -0.0641304 4.2e-05 -3.79065 -0.69315 1.49433 2650 
4020 1 -0.0236319 -0.00266991 -0.0647033 0.000116 -5.10099 -0.047415 1.85427 2650 
2563 1 -0.0233933 -0.000423158 -0.0644647 0.000423 -6.91711 -0.00262446 2.52657 2650 
2023 1 -0.0262486 -0.0380148 -0.0633551 0.000423 -6.71175 -0.0401487 2.76532 2650 
1768 1 -0.0242856 -0.0226797 -0.0638845 0.000656 -6.47352 -0.0638045 2.45776 2650 
2413 1 -0.027614 -0.0164475 -0.0631816 4.2e-05 -3.58332 0.0866833 1.52931 2650 
3242 1 -0.026055 -0.0159065 -0.0637661 0.000116 -6.42668 -0.143313 2.62679 2650 
3043 1 -0.0257778 -0.00480687 -0.0638787 0.000116 -4.07028 0.596523 1.63101 2650 
2001 1 -0.0282552 -0.00964357 -0.0624454 0.000423 -4.59929 -0.244898 1.98817 2650 
2259 1 -0.0279007 -0.00987585 -0.0629505 0.000116 -4.68819 -0.323328 1.93697 2650 
3508 1 -0.0288003 -0.00645553 -0.062619 4.2e-05 -2.99491 -0.115085 1.33738 2650 
1081 1 -0.0307964 -0.0301194 -0.0615886 0.000116 -5.98632 0.211199 3.10593 2650 
1071 1 -0.0298642 -0.0262192 -0.0620547 0.000116 -6.07308 0.105381 2.97727 2650 
358 1 -0.0293129 -0.0206759 -0.0619978 0.000423 -6.08464 0.154704 2.89816 2650 
3693 1 -0.0293885 -0.00767232 -0.0622496 0.000116 -2.92289 -0.201355 1.41064 2650 
1083 1 -0.0298182 -0.00219854 -0.0620926 0.000116 -4.84461 0.658897 2.35093 2650 
3229 1 -0.03099 -0.025515 -0.0611711 0.000423 -6.81042 -0.21394 3.40987 2650 
612 1 -0.0315248 -0.00666017 -0.0612419 0.000116 -4.59242 0.227874 2.34961 2650 
433 1 -0.032316 -0.00499759 -0.0609103 4.2e-05 -4.44374 -0.309808 2.42283 2650 
400 1 -0.032844 -0.0169509 -0.060547 0.000116 -7.46818 0.414126 4.05224 2650 
2612 1 -0.0340356 -0.0300076 -0.0598872 0.000116 -5.47026 0.0688002 3.10379 2650 
1012 1 -0.033667 -0.0111283 -0.0597441 0.000423 -5.16391 -0.112193 2.89753 2650 
3525 1 -0.034269 -0.00602996 -0.0593995 0.000423 -4.47479 -0.143218 2.63183 2650 
2066 1 -0.0345261 -0.0036799 -0.0596053 0.000116 -4.82483 -0.446215 2.80536 2650 
3701 1 -0.0353916 -0.0291541 -0.0590963 0.000116 -5.79852 -0.524582 3.46939 2650 
3015 1 -0.0347725 -0.0237507 -0.0591081 0.000423 -5.8401 -0.0357321 3.43538 2650 
2167 1 -0.0368987 -0.0274379 -0.0581678 0.000116 -5.53823 0.750832 3.50812 2650 
4362 1 -0.0366089 -0.00472332 -0.0583497 0.000116 -2.7818 -0.0908649 1.75513 2650 
2165 1 -0.0382625 -0.0266338 -0.0572802 0.000116 -5.58264 0.705732 3.74634 2650 
877 1 -0.0385031 -0.0256162 -0.0572077 4.2e-05 -5.5224 0.643159 3.71621 2650 
2460 1 -0.0375744 -0.0146425 -0.0573683 0.000423 -5.05988 -0.116052 3.31113 2650 
2557 1 -0.0390606 -0.0351343 -0.0563674 0.000423 -5.4247 -0.17379 3.75459 2650 
397 1 -0.0393897 -0.0119937 -0.0565116 0.000116 -5.37138 -1.40734 3.74419 2650 
893 1 -0.0415024 -0.0376772 -0.0545934 0.000423 -5.70417 0.0731198 4.32463 2650 
1905 1 -0.041555 -0.0363597 -0.054554 0.000423 -5.3563 -0.124317 4.10851 2650 
3073 1 -0.0415683 -0.0241746 -0.0550207 4.2e-05 -5.8384 -0.381812 4.4316 2650 
322 1 -0.0415447 -0.00350956 -0.0550384 4.2e-05 -5.71931 -0.460753 4.32196 2650 
3724 1 -0.0424558 -0.0241642 -0.0543382 4.2e-05 -6.32035 -0.218597 4.93433 2650 
3918 1 -0.0428685 -0.0196269 -0.0539193 0.000116 -4.74736 0.0435713 3.77306 2650 
3472 1 -0.0438336 -0.00537371 -0.0531379 0.000116 -3.93841 -0.0787426 3.25909 2650 
2269 1 -0.0445638 -0.00740262 -0.0525264 0.000116 -3.70041 -0.179319 3.16762 2650 
35 1 -0.0449448 -0.0407137 -0.0517967 0.000423 -5.48966 -0.0173879 4.78689 2650 
1404 1 -0.0455716 -0.00894744 -0.051655 0.000116 -2.77818 -0.262955 2.47436 2650 
3904 1 -0.0460232 -0.0164947 -0.0512532 0.000116 -4.58289 -0.362941 4.13251 2650 
3679 1 -0.0471375 -0.0134239 -0.0502278 0.000116 -4.36635 -0.470855 3.85898 2650 
4007 1 -0.0473132 -0.0109496 -0.0500562 0.000116 -2.48395 -0.332259 2.17214 2650 
1646 1 -0.0470143 -0.00297079 -0.050445 4.2e-05 -4.13539 0.250312 3.87011 2650 
1528 1 -0.0496874 -0.0295304 -0.0477094 0.000116 -4.12625 -1.50829 4.30904 2650 
2130 1 -0.0494241 -0.0096309 -0.0475294 0.000423 -2.2979 -0.217322 2.25097 2650 
1994 1 -0.0499922 -0.019581 -0.0469435 0.000423 -4.59065 0.0169852 4.88318 2650 
295 1 -0.0506792 -0.0149083 -0.0466439 0.000116 -2.91567 -0.330064 3.18136 2650 
2620 1 -0.0502108 -0.0134427 -0.047154 0.000116 -3.67578 -0.435132 3.81675 2650 
3566 1 -0.0501579 -0.0126559 -0.0472128 0.000116 -3.3397 -0.670617 3.93348 2650 
1454 1 -0.0498845 -0.0108454 -0.0470449 0.000423 -3.69195 0.00145551 3.90283 2650 
2911 1 -0.0507927 -0.0263232 -0.0460769 0.000423 -4.69539 -0.294296 5.16025 2650 
4150 1 -0.0512297 -0.0221126 -0.046049 0.000116 -3.25032 -0.274398 3.59739 2650 
3782 1 -0.050766 -0.0131454 -0.0460962 0.000423 -3.748 -0.083812 4.13899 2650 
1914 1 -0.051546 -0.0252001 -0.0452322 0.000423 -4.62533 -0.00637619 5.30104 2650 
2546 1 -0.0522086 -0.0289845 -0.0444668 0.000423 -4.58232 0.135562 5.38084 2650 
286 1 -0.0522288 -0.0168476 -0.0449119 0.000116 -3.69677 -0.563316 4.3528 2650 
1602 1 -0.0524606 -0.0112457 -0.0446371 0.000116 -3.6805 -0.0345353 4.26191 2650 
453 1 -0.0531286 -0.0212945 -0.043362 0.000423 -3.39604 -0.692389 4.13952 2650 
1616 1 -0.0541884 -0.0220462 -0.0424635 0.000116 -2.87359 -0.502825 4.969 2650 
1336 1 -0.0544013 -0.0167745 -0.0417539 0.000423 -3.74876 0.410571 4.9127 2650 
2132 1 -0.0559648 -0.0301447 -0.0396351 0.000423 -4.70121 0.401211 6.5956 2650 
2939 1 -0.0563172 -0.00456067 -0.0389763 0.000116 -4.34601 -0.0876356 2.29406 2650 
2947 1 -0.0569821 -0.00172819 -0.038704 0.000116 -3.58063 -0.398325 5.27387 2650 
2098 1 -0.0566294 -0.0221859 -0.0382657 0.000656 -4.31319 -0.0311133 6.3639 2650 
4097 1 -0.0569808 -0.011876 -0.0381598 0.000423 -1.76323 -0.187449 2.66396 2650 
4028 1 -0.0578376 -0.0303852 -0.0374098 0.000116 -4.00783 -0.0882365 6.16766 2650 
4087 1 -0.0572574 -0.0243231 -0.0377412 0.000423 -3.977 -0.103836 6.02864 2650 
977 1 -0.0580313 -0.00233251 -0.0371129 0.000116 -2.93235 -0.108984 4.58404 2650 
2823 1 -0.0578048 -0.000116019 -0.037465 0.000116 -3.97527 -0.00340872 6.15009 2650 
4360 1 -0.0579306 -0.000115996 -0.0372695 0.000116 -3.96177 -0.000260301 6.15707 2650 
2376 1 -0.057974 -0.000357696 -0.0372024 0.000116 -3.88331 -0.128378 6.03365 2650 
615 1 -0.0578889 -0.000753995 -0.0373343 0.000116 -3.77977 -0.0616727 5.85839 2650 
3583 1 -0.0581699 -0.0242431 -0.0368953 0.000116 -3.75523 -1.10282 5.99931 2650 
1461 1 -0.0579001 -0.0216791 -0.036748 0.000423 -3.88258 -0.100501 6.13834 2650 
2905 1 -0.0579853 -0.018239 -0.0366147 0.000423 -3.86366 -0.212794 6.1231 2650 
3974 1 -0.0578224 -0.0161258 -0.0368718 0.000423 -3.76852 -0.10955 5.89889 2650 
1968 1 -0.0582836 -0.0126534 -0.0367158 0.000116 -2.99781 0.671656 4.75789 2650 
1207 1 -0.0583791 -0.0122749 -0.0366959 4.2e-05 -3.28808 1.2017 4.98786 2650 
843 1 -0.0581271 -0.0094651 -0.0369634 0.000116 -2.97099 0.49387 4.66067 2650 
1535 1 -0.0582303 -4.3358e-05 -0.0369376 4.2e-05 -4.01042 0.000491216 6.31676 2650 
427 1 -0.0588148 -0.0245246 -0.0358551 0.000116 -3.56599 0.0763113 5.88543 2650 
1387 1 -0.0595403 -0.0189124 -0.0346403 0.000116 -2.63003 -0.588742 4.55576 2650 
138 1 -0.0592941 -0.0177487 -0.034455 0.000423 -2.58077 -0.385595 4.47991 2650 
3168 1 -0.060329 -0.0221814 -0.0332373 0.000116 -2.67883 -0.243354 4.75932 2650 
2982 1 -0.0599218 -0.0138044 -0.0333504 0.000423 -2.53307 -0.559974 4.55157 2650 
4377 1 -0.0605503 -0.038503 -0.0329793 4.2e-05 -3.18368 0.375692 5.84158 2650 
2042 1 -0.0606198 -0.0159037 -0.0327136 0.000116 -2.78351 0.786699 5.17751 2650 
4251 1 -0.0598147 -0.0202533 -0.0319871 0.000116 -3.23146 0.195045 8.99143 2650 
367 1 -0.0609538 -0.022501 -0.0314232 0.000423 -3.37628 0.0661366 6.54476 2650 
734 1 -0.061836 -0.021979 -0.0303524 0.000116 -2.47572 0.433392 5.04046 2650 
2690 1 -0.0617062 -0.0317903 -0.0299217 0.000423 -2.87595 -0.147519 5.96159 2650 
1829 1 -0.062291 -0.0110691 -0.0294071 0.000116 -1.48133 -0.316731 3.11999 2650 
3356 1 -0.0626839 -0.0209646 -0.0285609 0.000116 -2.10315 -0.276594 4.67149 2650 
1161 1 -0.0625384 -0.00236998 -0.0288781 0.000116 -1.45717 0.0449291 3.13863 2650 
1183 1 -0.0628852 -0.00588483 -0.0281149 0.000116 -2.31293 -0.0619104 5.16454 2650 
811 1 -0.0628055 -0.0236146 -0.0275386 0.000423 -2.79977 0.166508 6.34199 2650 
2100 1 -0.0628663 -0.0146062 -0.0268147 0.000656 -2.03651 -0.187557 4.75114 2650 
2607 1 -0.0645285 -0.00951756 -0.0241079 0.000116 -1.61131 -0.0542344 4.34783 2650 
3479 1 -0.0647244 -0.018659 -0.0235732 0.000116 -2.33397 -0.031417 6.38661 2650 
2846 1 -0.064996 -0.00320729 -0.0230364 4.2e-05 -1.74162 -0.350647 4.92273 2650 
3252 1 -0.0652406 -0.0263723 -0.022106 0.000116 -2.27711 0.146326 6.71457 2650 
807 1 -0.0652787 -0.00239138 -0.0210144 0.000423 -1.81467 0.164552 5.7326 2650 
2457 1 -0.0655782 -0.0280409 -0.0200621 0.000423 -2.17228 0.0431127 7.06157 2650 
3227 1 -0.0656789 -0.020617 -0.0197314 0.000423 -2.2636 -0.00880071 7.5335 2650 
2038 1 -0.0658486 -0.00274214 -0.0202226 0.000116 -1.57219 -0.227846 5.11492 2650 
2314 1 -0.065831 -0.0425632 -0.0183699 0.000656 -2.06635 0.124329 7.51673 2650 
3613 1 -0.0663981 -0.0237742 -0.0186117 4.2e-05 -1.52983 -0.339861 5.45021 2650 
2900 1 -0.0660034 -0.00916896 -0.018607 0.000423 -1.6425 0.255695 5.78533 2650 
656 1 -0.064881 -0.00437098 -0.0188518 4.2e-05 1.57007 -0.0552897 3.45735 2650 
2685 1 -0.0661746 -0.0266745 -0.0179961 0.000423 -1.88525 0.0771822 6.80636 2650 
1946 1 -0.0665244 -0.0100002 -0.017867 0.000116 -1.61186 -0.237889 5.91909 2650 
4048 1 -0.0665867 -0.00204925 -0.0179255 4.2e-05 -1.6361 1.15231 6.15221 2650 
3375 1 -0.0666806 -0.033124 -0.0172703 0.000116 -1.43956 -0.539576 5.54583 2650 
2172 1 -0.000117881 -0.00106215 -0.016721 0.000116 0.0682862 0.00746542 -0.00852403 2650 
606 1 -0.000183 0.00167169 -0.016592 0.000116 0 -0.011753 0 2650 
2520 1 -0.000310311 0.00488559 -0.0168277 4.2e-05 0.00318265 0.000380138 0.00682554 2650 
935 1 -0.0667135 -0.0221452 -0.0158808 0.000423 -1.66154 -0.00745671 6.96716 2650 
2192 1 -0.066988 -4.2072e-05 -0.0163647 4.2e-05 -0.844453 0.00043734 3.36979 2650 
2013 1 -0.00294994 0.00302805 -0.015918 0.000423 -0.00154235 0.00221798 0.00156406 2650 
2301 1 -0.0043014 0.00362197 -0.0162044 4.2e-05 -0.00116259 -0.0070103 0.00459775 2650 
1679 1 -0.00411919 0.00441815 -0.0158542 0.000423 -0.00453172 0.0157125 0.00260684 2650 
2283 1 -0.00352631 0.00418536 -0.016405 0.000116 -0.00010552 0.00956354 0.000789399 2650 
4227 1 -0.000491929 0.00430107 -0.0162113 0.000116 0.00143204 -0.0228975 -0.0290312 2650 
1611 1 -0.00348043 0.00482062 -0.0159156 0.000116 0.0513704 -0.0152435 0.0155029 2650 
978 1 -0.00277016 0.0063764 -0.0163717 0.000116 0.0180122 -0.00353228 -0.00159853 2650 
3934 1 -0.001977 0.00643369 -0.016218 0.000116 0 -0.011753 0 2650 
3177 1 -2.56465e-05 0.00861391 -0.0161689 4.2e-05 0.00917698 -0.00185525 -0.00666376 2650 
302 1 -5.49316e-05 0.00923713 -0.015882 0.000116 -0.0434127 0.0256721 -0.0191129 2650 
1483 1 -0.000452121 0.0100961 -0.0163129 0.000423 -0.00134867 0.0112238 -0.0085204 2650 
3007 1 -0.00264566 0.0110501 -0.0159349 0.000423 -0.00754521 0.0118776 -0.00214285 2650 
371 1 -0.000434978 0.0113805 -0.016392 0.000423 0.00531915 0.0198137 0.0114896 2650 
2182 1 -0.00146077 0.0124535 -0.016051 0.000116 -0.00770269 0.0448602 -0.0445042 2650 
188 1 -0.00258231 0.012651 -0.0162919 0.000116 -0.0148612 0.0228045 0.00418427 2650 
2713 1 -0.000717485 0.0144941 -0.016111 0.000116 0.00037122 0.035974 0.00535071 2650 
66 1 -0.00531444 0.0341371 -0.015903 0.000116 -0.217432 -0.0137213 0.0406838 2650 
4101 1 -0.0668094 -0.0258664 -0.0154612 0.000423 -1.67011 0.358428 7.21395 2650 
3390 1 -0.067128 -0.00668659 -0.0154416 0.000116 -1.39035 -0.226483 5.87176 2650 
1763 1 -0.00422463 -0.00231241 -0.0154932 0.000656 -0.0890582 0.0217677 -0.0881811 2650 
30 1 -0.00171674 -0.00150533 -0.0157132 0.000423 -0.0139928 -0.0214008 0.00726417 2650 
3599 1 -0.00126145 -0.0014623 -0.0152698 0.000116 0.0260231 -0.00977207 -0.00117121 2650 
2399 1 -0.002418 0.00188569 -0.015541 0.000116 0 -0.011753 0 2650 
3637 1 -0.00515595 0.00376798 -0.0155493 0.000423 -0.00704251 0.0124689 0.006236 2650 
2344 1 -0.000103941 0.00471401 -0.0152682 0.000423 0.0113166 5.02216e-06 -0.0390029 2650 
3365 1 -0.00216531 0.00486937 -0.0151687 0.000116 0.0120999 0.0333262 -0.0498495 2650 
2438 1 -0.00605136 0.00725779 -0.0151049 0.000423 -0.00468347 -0.000292455 -0.00123863 2650 
3830 1 -0.006879 0.00798569 -0.015411 4.2e-05 0 -0.011753 0 2650 
938 1 -0.0014828 0.00991011 -0.0157876 0.000116 -0.00119823 0.000558801 -0.00633771 2650 
2781 1 -0.00612672 0.0108862 -0.0153183 0.000423 -0.00287998 0.011096 -0.0317373 2650 
2969 1 -0.0023863 0.0104122 -0.0150338 0.000656 -0.00667616 0.014076 0.00443217 2650 
70 1 -0.00474828 0.0119832 -0.015783 0.000116 0.0560864 0.0328811 0.00597028 2650 
2793 1 -0.00107419 0.0122106 -0.0152242 0.000423 0.000157206 0.0547174 -0.00166293 2650 
3644 1 -0.00116976 0.0130677 -0.0152381 0.000423 -0.000399523 0.00418678 0.0157329 2650 
2924 1 -0.00718586 0.0154801 -0.0150371 0.000116 -0.0500795 0.0331408 0.0243033 2650 
2466 1 -0.00530475 0.021441 -0.015245 0.000423 0.0618857 0.0331724 -0.00268308 2650 
2585 1 -0.00097835 0.0245924 -0.0152577 0.000116 -0.0221426 0.0759057 0.0070692 2650 
4234 1 -0.00500546 0.0320083 -0.0157487 0.000116 0.00512064 0.0508026 0.0366661 2650 
2863 1 -0.00278991 0.0524622 -0.0152636 0.000656 0.0828395 0.112062 0.0238951 2650 
2361 1 -0.0669448 -0.0244488 -0.0148721 0.000423 -1.50988 -0.105885 6.89933 2650 
4244 1 -0.00161524 -0.00278821 -0.014659 0.000116 -0.0436806 -0.00994679 0.0125723 2650 
1053 1 -0.007469 -0.00195631 -0.014946 0.000116 0 -0.011753 0 2650 
736 1 -0.00741866 -0.00108926 -0.01474 0.000116 -0.0307431 -0.0170391 0.0144389 2650 
3576 1 -0.00282093 -0.00143333 -0.0142483 0.000116 0.0561059 0.00120064 -0.0311085 2650 
509 1 -0.00765118 -0.000518802 -0.0146342 0.000116 -0.00480979 -0.0076817 0.0108723 2650 
857 1 -0.00504863 0.00263116 -0.0148672 0.000116 -0.0623021 0.0193526 0.00200378 2650 
2474 1 -0.000844393 0.00247391 -0.0147058 0.000423 0.0307748 -0.0136667 -0.043701 2650 
889 1 -0.00217001 0.00407153 -0.0147034 0.000656 0.0239239 0.0130736 -0.0545072 2650 
4300 1 -0.000237136 0.00404498 -0.014539 0.000423 0.0101839 0.00179298 -0.0226263 2650 
1192 1 -0.0072234 0.00586979 -0.0149471 0.000116 -0.0160738 0.0171838 -0.0228619 2650 
581 1 -0.00561687 0.00806374 -0.01452 0.000423 0.000441693 0.00100922 0.00165067 2650 
233 1 -0.00376553 0.00896737 -0.014801 0.000423 0.00841442 -0.00267664 0.00454736 2650 
2726 1 -0.000261661 0.00874043 -0.0145761 0.000116 -0.00741369 0.00988612 -0.041436 2650 
289 1 -0.00322963 0.00974036 -0.0145325 0.000116 -0.00850769 0.000708308 0.0302001 2650 
86 1 -0.00425358 0.0104118 -0.0149658 0.000116 -0.0196067 0.0126222 0.000798653 2650 
3500 1 -0.00354151 0.0107514 -0.0146469 4.2e-05 -0.0484689 0.00233787 0.0298831 2650 
3150 1 -0.00149936 0.0104424 -0.0148422 0.000116 -0.0182263 -0.0087302 -0.0269448 2650 
1228 1 -0.00192631 0.0124312 -0.0148994 0.000423 -0.0165199 0.0339339 0.00467854 2650 
1839 1 -0.00431948 0.0154748 -0.0143933 0.000116 -0.0676852 0.0211351 0.0188737 2650 
93 1 -0.00813997 0.0183645 -0.0147686 0.000116 0.0683401 0.0488097 -0.0337926 2650 
1717 1 -0.00343843 0.0280895 -0.0146937 0.000116 -0.014717 0.0706098 -0.0348682 2650 
1195 1 -0.00526542 0.0319484 -0.0144108 0.000116 0.0557766 0.0782116 -0.0138054 2650 
3588 1 -0.00609019 0.0423204 -0.0145185 0.000116 0.181107 0.0152304 0.0217687 2650 
4010 1 -0.00741752 0.0427477 -0.0147179 0.000116 0.0373387 0.0604042 0.0259593 2650 
3058 1 -0.0675239 -0.00400166 -0.013604 0.000116 -0.583037 -0.0347463 3.20764 2650 
3093 1 -0.0037078 -0.00345708 -0.0136447 0.000423 -0.111039 -0.331273 -0.863638 2650 
2666 1 -0.00408923 -0.00282514 -0.0141171 0.000423 -0.187201 0.285788 -0.376776 2650 
1991 1 -0.0076821 0.000260204 -0.0141382 0.000656 -0.019376 -0.00203791 0.00870126 2650 
161 1 -0.00022589 4.45088e-05 -0.0135627 0.000423 0.0169113 0.00636159 -0.0425513 2650 
2609 1 -0.00848456 0.00113622 -0.0135354 0.000116 0.0165148 -0.0225508 -0.0126409 2650 
2922 1 -0.00775697 0.00135156 -0.0135777 0.000116 -0.00925852 -0.000802711 0.00675368 2650 
3239 1 -0.00661499 0.00101644 -0.0141502 0.000116 -0.0248133 -0.00752354 0.0120924 2650 
2473 1 -0.00886465 0.00178305 -0.0135208 0.000423 0.0164368 -0.00639214 -0.0235738 2650 
2913 1 -0.00940837 0.00392191 -0.0137887 0.000116 -0.0031719 -0.0208365 0.00893463 2650 
220 1 -0.00338279 0.00342893 -0.0139909 4.2e-05 0.00197382 0.00663681 0.00671825 2650 
3787 1 -0.00674981 0.00405887 -0.0137875 0.000116 -0.0024271 -0.00223267 -0.0195234 2650 
1388 1 -0.0059163 0.00548386 -0.0138118 0.000116 -0.039288 0.0021603 0.0169103 2650 
1288 1 -0.002467 0.00561469 -0.014044 0.000116 0 -0.011753 0 2650 
3515 1 -0.00835242 0.00668938 -0.0138591 0.000656 -0.00454215 -0.00749919 0.00616721 2650 
1618 1 -0.00971868 0.00754123 -0.0136954 0.000116 0.0059414 0.00192455 -0.00369393 2650 
3364 1 -0.00671245 0.00788294 -0.0138076 0.000116 -0.00179506 0.0163753 -0.0232219 2650 
1769 1 -0.00819333 0.00819389 -0.0139282 0.000656 -0.0137362 -0.00803998 0.00121316 2650 
4190 1 -0.00896392 0.00913456 -0.0138251 0.000423 -0.00788233 0.00684233 0.00501954 2650 
2092 1 -0.00671887 0.00923531 -0.0137748 0.000656 -0.000561231 0.00152073 0.0231434 2650 
1827 1 -0.00470552 0.00879827 -0.0141174 0.000116 0.0445821 -0.0304485 -0.00868089 2650 
2313 1 -0.00334755 0.00885849 -0.0137804 0.000656 0.0129983 0.0241547 0.0127298 2650 
1409 1 -0.00044 0.00939469 -0.013868 0.000116 0 -0.011753 0 2650 
1476 1 -0.00744395 0.0099627 -0.013438 0.000423 -0.00887684 0.00532697 0.00249764 2650 
2453 1 -0.00608107 0.0112115 -0.0136021 0.000423 0.00287214 0.0261989 -0.0126472 2650 
1802 1 -0.00345217 0.0124086 -0.0135864 0.000423 0.00500259 -0.000364755 -0.0111755 2650 
3163 1 -0.00828602 0.0132817 -0.0139419 0.000116 0.00944139 0.0175584 0.0253463 2650 
3838 1 -0.00541203 0.012994 -0.0141081 0.000656 0.0059045 0.0308137 -0.0288407 2650 
3145 1 -0.00836661 0.0136357 -0.0134561 0.000116 -0.0186098 0.0309384 -0.020461 2650 
3825 1 -0.0096874 0.0144165 -0.013725 0.000116 -0.069686 0.0193601 -0.0251245 2650 
949 1 -0.00919682 0.0149414 -0.0139496 0.000116 0.00609202 0.0335108 0.0318859 2650 
3051 1 -0.00875801 0.02348 -0.01345 0.000116 0.128093 -0.215655 -0.111448 2650 
689 1 -0.0672787 -0.0372972 -0.0132839 0.000423 -1.5228 -0.025116 7.49892 2650 
1520 1 -0.0676632 -0.0369627 -0.0128876 0.000116 -1.42719 -0.133395 7.363 2650 
2332 1 -0.005747 -0.000839957 -0.013317 0.000423 -0.0114447 -0.00779769 0.00753018 2650 
3011 1 -0.00115101 -0.00129175 -0.0132981 0.000423 0.0180353 -0.0317081 -0.0392676 2650 
3191 1 -0.00956192 -0.000689792 -0.0129881 0.000656 -0.0183475 -0.00795438 -0.00635009 2650 
2525 1 -0.004063 -0.000158311 -0.013231 4.2e-05 0 -0.011753 0 2650 
4126 1 -0.00808208 0.00119705 -0.0127542 0.000116 -0.0261531 0.0084042 0.00402279 2650 
3880 1 -0.010426 0.00183236 -0.0127216 0.000423 -0.0100599 -0.0142228 0.0101352 2650 
3316 1 -0.00991097 0.0023397 -0.0131767 0.000423 -0.0114153 -0.0186534 -0.00362391 2650 
2512 1 -0.00716371 0.00192364 -0.0133806 0.000116 0.018779 -0.0192413 0.00230208 2650 
3917 1 -0.003984 0.00214269 -0.012703 0.000116 0 -0.011753 0 2650 
2059 1 -0.003583 0.00235169 -0.012756 0.000116 0 -0.011753 0 2650 
150 1 -0.00976681 0.00389858 -0.0132348 0.000423 -0.0332403 0.0236354 0.0259176 2650 
1032 1 -0.00496334 0.00328246 -0.012969 0.000423 0.0140776 0.00865188 0.010778 2650 
3446 1 -0.000578495 0.00373907 -0.0132067 0.000423 0.016221 -0.0142776 -0.00742368 2650 
763 1 -0.00683001 0.00412865 -0.0131902 4.2e-05 -0.0107376 -0.0192397 -0.014763 2650 
1427 1 -0.002948 0.00468269 -0.013376 4.2e-05 0 -0.011753 0 2650 
3362 1 -0.00261641 0.00476176 -0.0128398 0.000116 0.000350619 -0.00253681 -0.00404217 2650 
2322 1 -0.00910392 0.00563274 -0.0133461 0.000656 -0.00463581 -0.0140818 0.00324309 2650 
4179 1 -0.00812139 0.00586117 -0.0129445 0.000423 -0.000889884 -0.0208242 0.00186897 2650 
2918 1 -0.00662678 0.00675942 -0.0133902 0.000116 0.0149777 0.0131491 0.0124233 2650 
963 1 -0.0069112 0.00694056 -0.0133214 0.000116 0.00350227 -0.00324664 0.0156587 2650 
2912 1 -0.00537774 0.00668376 -0.0130955 0.000116 0.00196064 0.0151142 0.00117299 2650 
1250 1 -0.00893896 0.00758653 -0.0134072 0.000423 -0.0126021 -0.0099031 0.00355829 2650 
4257 1 -0.00818558 0.00750004 -0.0131252 0.000116 -0.00578911 -0.00907208 0.00958653 2650 
2222 1 -0.000706697 0.00777578 -0.0128327 0.000423 0.00109584 0.00172293 0.0219135 2650 
2483 1 -0.00635585 0.0080749 -0.0130205 0.000116 0.0222317 -0.00887276 -0.000700143 2650 
4368 1 -0.000966522 0.00863597 -0.0130934 0.000116 0.0213285 8.20602e-05 -0.0260591 2650 
1237 1 -0.00954136 0.00943541 -0.0132647 0.000423 -0.00626746 0.00986586 0.00606863 2650 
842 1 -0.00749901 0.00877404 -0.0132431 0.000116 0.0142557 0.0140049 -0.0234983 2650 
1775 1 -0.00826301 0.0102094 -0.0131532 0.000423 -0.000575409 -0.0115316 -0.00160845 2650 
3847 1 -0.00938726 0.010584 -0.0132395 0.000656 0.000663601 0.0153864 -0.00910714 2650 
2798 1 -0.00674243 0.0117216 -0.0128048 0.000423 0.00307291 0.0287307 -0.0047091 2650 
128 1 -0.000218067 0.0125922 -0.0132996 0.000423 -0.0151911 0.0337573 -0.0149348 2650 
3471 1 -0.00770803 0.0130555 -0.0132859 0.000116 0.00654915 0.0415659 -0.0136084 2650 
2191 1 -0.00151605 0.0130791 -0.0132105 4.2e-05 -0.0219515 0.010649 -0.0334451 2650 
1617 1 -0.000708222 0.0129383 -0.0130251 0.000116 0.00511482 0.0710113 0.047396 2650 
3686 1 -0.0108673 0.0179826 -0.0127663 0.000116 0.0215061 0.0913964 -0.00906023 2650 
4231 1 -0.00175456 0.0185105 -0.0133813 0.000116 -0.0134934 0.0153003 0.0304581 2650 
148 1 -0.0104555 0.0260254 -0.0127718 0.000423 -0.126154 -0.159151 0.0929372 2650 
2643 1 -0.00987542 0.0339889 -0.0128151 0.000656 -0.0823633 0.0688822 0.0201377 2650 
3973 1 -0.00587995 0.0392291 -0.0127798 0.000423 -0.0294603 0.112835 -0.0424766 2650 
3820 1 -0.000741417 0.0496222 -0.0131934 0.000116 0.00708078 0.241917 -0.0365799 2650 
1135 1 -0.0674893 -0.0448264 -0.0121301 0.000423 -1.2421 -0.0706195 6.98577 2650 
159 1 -0.00781669 -0.00344073 -0.0122145 0.000423 -0.819477 -0.043097 -1.28053 2650 
3882 1 -0.0101036 -0.00285223 -0.0118968 0.000423 -0.0315108 -0.0194428 -0.0375566 2650 
3477 1 -0.00432987 -0.00238104 -0.0120604 0.000116 0.0183398 -0.0587002 0.0125841 2650 
1422 1 -0.00400678 -0.00182765 -0.0122735 4.2e-05 -0.0036076 -0.017528 0.00216624 2650 
3249 1 -0.0114662 -0.000283323 -0.0121647 0.000116 -0.0378681 -0.0258717 -0.0093562 2650 
623 1 -0.00839562 -0.000549167 -0.0124824 0.000116 -0.0192086 -0.00896372 0.0230222 2650 
4165 1 -0.0053361 -1.05988e-05 -0.0125994 0.000656 -0.00295906 -0.0330191 0.0101422 2650 
3389 1 -0.010415 0.000639689 -0.012026 0.000116 0 -0.011753 0 2650 
2619 1 -0.00650508 0.000247376 -0.0126022 0.000116 -0.0137973 -0.0204082 0.00531131 2650 
3956 1 -0.00963858 0.000956346 -0.0122965 0.000656 -0.011959 0.00314662 -0.000969155 2650 
3551 1 -0.00841422 0.00092168 -0.012242 0.000423 -0.015336 0.00523015 0.00637389 2650 
676 1 -0.00465551 0.00227164 -0.0125471 0.000423 0.0030198 -0.00797062 0.0224423 2650 
3826 1 -0.0104905 0.00247842 -0.0125814 0.000116 -0.0312359 -0.00760565 -0.00168919 2650 
4374 1 -0.00937903 0.00238306 -0.0120797 4.2e-05 -0.00342399 0.0134868 -0.018776 2650 
1171 1 -0.00704144 0.00280718 -0.012435 0.000116 0.0131753 -0.0110464 0.0150896 2650 
411 1 -0.011508 0.00366794 -0.0121013 0.000116 -0.00787832 -0.00657823 -8.20909e-05 2650 
1261 1 -0.00771533 0.00394179 -0.0123668 0.000423 -0.00427187 -0.0142005 0.00299326 2650 
3587 1 -0.0106973 0.00461045 -0.0126311 0.000116 -0.0579635 0.0255056 0.0285778 2650 
708 1 -0.000596658 0.00402986 -0.0120704 0.000423 0.023903 0.00196086 0.00368067 2650 
2194 1 -0.00163296 0.00480438 -0.0121679 4.2e-05 0.00491046 0.00111596 0.00228026 2650 
3030 1 -0.001189 0.00479769 -0.012596 0.000116 0 -0.011753 0 2650 
4078 1 -0.0105001 0.00600508 -0.0123256 0.000423 -0.000913784 0.00267709 0.00687214 2650 
3259 1 -0.00881239 0.00626508 -0.0126013 0.000116 0.00136236 -0.0113258 0.00321419 2650 
3322 1 -0.00309354 0.00565262 -0.0118919 0.000423 0.0051535 0.00245556 0.00244604 2650 
2649 1 -0.000166183 0.00596082 -0.0125399 0.000656 0.0169371 -0.0104487 -0.0195285 2650 
445 1 -0.0101143 0.00703351 -0.0126258 0.000656 -0.00236227 -0.000765152 0.00548657 2650 
4318 1 -0.00851914 0.00682436 -0.0119666 0.000423 -0.000156132 -0.00757278 0.00171777 2650 
4002 1 -0.000443 0.00695869 -0.01223 0.000116 0 -0.011753 0 2650 
1795 1 -0.00901473 0.00719591 -0.012592 0.000423 -5.39571e-05 -0.00579665 0.00392393 2650 
2630 1 -0.001036 0.00713469 -0.012074 4.2e-05 0 -0.011753 0 2650 
1241 1 -0.00950122 0.00865229 -0.0121818 0.000423 -0.00486634 -0.0127471 -0.0163098 2650 
3310 1 -0.00510026 0.00837414 -0.0124624 0.000423 -0.0177377 -0.0120473 -0.00615369 2650 
1423 1 -0.00145 0.00861469 -0.012526 4.2e-05 0 -0.011753 0 2650 
205 1 -0.000692025 0.00794118 -0.0121175 0.000116 0.00114706 0.000219934 0.0269812 2650 
3776 1 -0.00927148 0.0100699 -0.0121367 0.000423 -0.00858064 -0.00442766 -0.00549231 2650 
450 1 -0.00497465 0.0107924 -0.0123552 0.000656 0.00905578 0.038289 0.00539906 2650 
2094 1 -0.00998057 0.0117119 -0.0125844 0.000656 -0.0146614 0.00355759 -0.0161857 2650 
1986 1 -0.00196675 0.0116993 -0.0123272 0.000656 0.00762539 0.0149956 0.0116892 2650 
2205 1 -0.00539652 0.0132921 -0.0126309 0.000656 -0.00206311 0.000112593 -0.00429342 2650 
2345 1 -0.00101883 0.0131783 -0.0125572 0.000423 -0.0138098 0.0125075 -0.030662 2650 
3632 1 -0.0113628 0.0136658 -0.0119633 0.000423 0.000690632 0.0287465 -0.0101838 2650 
478 1 -0.00552722 0.0152241 -0.0123102 0.000423 0.0184535 0.00116934 0.020279 2650 
3858 1 -0.0106847 0.0456051 -0.0122453 0.000423 0.0333363 0.126226 0.00303945 2650 
2848 1 -0.0679306 -0.00777978 -0.0116837 4.2e-05 -1.30204 -0.110648 7.53112 2650 