ITEM: TIMESTEP
11175930
ITEM: NUMBER OF ATOMS
4317
ITEM: BOX BOUNDS ff ff ff
-0.15 0.15
-0.15 0.06
-0.15 0.15
ITEM: ATOMS id type x y z radius vx vy vz density 
3603 1 -0.0782476 -0.019697 -0.0182362 0.000116 -8.13108 0.146186 8.25057 2650 
1944 1 -0.0878261 -0.0206244 -0.00246736 0.000116 -6.48373 -0.0494659 7.70736 2650 
83 1 -0.146876 -0.0420645 0.0133161 0.000116 -9.43131 -0.112258 6.02084 2650 
1135 1 -0.00237106 -0.0491387 -0.0685366 0.000423 -7.52634 -0.0235204 0.284912 2650 
2132 1 -0.0165595 -0.0450344 -0.0665487 0.000423 -8.18149 -0.386371 2.03046 2650 
618 1 -0.0378569 -0.0468301 -0.057549 0.000116 -6.42546 0.177453 4.21696 2650 
947 1 -0.0410835 -0.059215 -0.0552909 0.000116 -5.78956 -0.0240359 4.30003 2650 
1856 1 -0.047124 -0.0542408 -0.0502311 0.000116 -4.03841 -0.14258 3.84453 2650 
3812 1 -0.0477852 -0.0507781 -0.0496135 0.000116 -10.5915 0.147108 10.1431 2650 
2314 1 -0.0465349 -0.0452707 -0.0500509 0.000656 -6.52641 -0.146815 6.06801 2650 
3946 1 -0.057029 -0.0497569 -0.0387668 4.2e-05 -3.96096 0.0635442 5.82984 2650 
1550 1 -0.0601376 -0.0506421 -0.032437 0.000656 -4.12476 0.195762 7.72473 2650 
3840 1 -0.0660627 -0.045684 -0.017517 0.000656 -2.22562 0.00120093 8.37405 2650 
2835 1 -0.0673415 -0.0608239 -0.0144957 0.000116 -1.50234 -0.416548 7.01688 2650 
2064 1 -0.0645124 -0.0454085 0.0241452 0.000116 2.46833 0.965869 6.57054 2650 
1320 1 -0.0635265 -0.0492348 0.0267986 4.2e-05 2.79866 -0.130093 6.66436 2650 
3391 1 -0.0627407 -0.0511878 0.0285899 4.2e-05 2.60524 -0.315932 5.65448 2650 
669 1 -0.051599 -0.0618211 0.0448182 0.000656 5.55304 -0.0520226 6.39711 2650 
1256 1 -0.0403182 -0.0458906 0.0554742 0.000423 7.18419 0.0684321 5.22544 2650 
3156 1 -0.0296531 -0.0458409 0.0621746 0.000116 9.25042 -0.369565 4.41016 2650 
1462 1 -0.0123906 -0.0465743 0.0674495 0.000423 7.47879 0.226901 1.35905 2650 
51 1 -0.00520336 -0.05191 0.0683804 0.000423 8.14734 -0.0976994 0.598126 2650 
2717 1 -0.00473709 -0.0503085 0.068721 0.000116 8.02621 0.707916 0.558649 2650 
387 1 -0.0041538 -0.0245233 -0.0687585 0.000116 -8.36943 0.235061 0.503595 2650 
1296 1 -0.00130086 -0.0176885 -0.0688715 0.000116 -6.67642 -0.748417 0.132218 2650 
2183 1 -0.00171063 -0.0167976 -0.0688624 0.000116 -6.71264 -0.47423 0.177403 2650 
2398 1 -0.00308002 -0.0155263 -0.068815 0.000116 -6.49539 -0.284628 0.288072 2650 
3572 1 -0.00154515 -0.0155483 -0.0688663 0.000116 -6.50392 -0.0300519 0.138622 2650 
2196 1 -0.0012011 -0.00996006 -0.0689474 4.2e-05 -3.32504 -0.191803 0.0717338 2650 
1076 1 -0.00210356 -0.00819945 -0.0688521 0.000116 -6.26109 -0.133446 0.204239 2650 
3348 1 -0.00203101 -0.00795244 -0.0688541 0.000116 -6.68276 0.112566 0.216569 2650 
3926 1 -0.0030379 -0.00767927 -0.0688171 0.000116 -6.61838 0.253165 0.303033 2650 
417 1 -0.00147424 -0.000412597 -0.0688681 0.000116 -4.59487 -0.0813506 0.0947414 2650 
3601 1 -0.00789153 -0.0449028 -0.0684304 0.000116 -7.19233 -0.0808847 0.836732 2650 
4106 1 -0.00148419 -0.0351462 -0.0685625 0.000423 -7.25142 -0.361948 0.153751 2650 
659 1 -0.00967888 -0.0324545 -0.0682757 4.2e-05 -7.42319 -0.331842 1.05908 2650 
4036 1 -0.0098207 -0.0317491 -0.0681806 0.000116 -7.6854 -0.14252 1.10836 2650 
2053 1 -0.0100482 -0.0315306 -0.068148 0.000116 -7.65975 -0.0120477 1.12157 2650 
4101 1 -0.00945865 -0.0314346 -0.0679234 0.000423 -7.63081 -0.173361 1.05496 2650 
3878 1 -0.00933704 -0.0255371 -0.0679399 0.000423 -7.55388 0.0587504 1.04876 2650 
2098 1 -0.00113404 -0.0252696 -0.0683363 0.000656 -8.08668 -0.0758311 0.114067 2650 
392 1 -0.0106274 -0.0247604 -0.0680583 0.000116 -7.32978 -0.132478 1.14209 2650 
3356 1 -0.00679307 -0.0245274 -0.0685479 0.000116 -9.12914 -0.415307 0.903471 2650 
2898 1 -0.00500611 -0.0240048 -0.068395 0.000423 -6.78568 -0.377583 0.485751 2650 
1383 1 -0.00683066 -0.0220815 -0.0685444 0.000116 -6.55478 -0.862941 0.644256 2650 
2349 1 -0.00590463 -0.0164676 -0.0683232 0.000423 -7.29297 -0.0230393 0.64132 2650 
1008 1 -0.00017076 -0.0165111 -0.0685776 0.000423 -6.40305 -0.128495 0.0227615 2650 
2538 1 -0.00145972 -0.0146393 -0.0683304 0.000656 -6.52827 -0.0948884 0.163186 2650 
1628 1 -0.00903958 -0.0114835 -0.0682888 0.000116 -7.21016 0.69904 0.95261 2650 
1792 1 -0.00395151 -0.0114707 -0.0684648 0.000423 -6.31651 -0.210897 0.393994 2650 
2143 1 -0.0076591 -0.0109268 -0.0681493 0.000423 -6.43653 -0.120105 0.713726 2650 
3834 1 -0.0110798 -0.00837155 -0.0680621 4.2e-05 -4.65086 -0.544587 0.791457 2650 
1172 1 -0.00887519 -0.00519908 -0.0683098 0.000116 -4.62633 -0.134054 0.597738 2650 
2714 1 -0.00866063 -0.00476007 -0.0683375 0.000116 -5.10735 0.22549 0.665766 2650 
3482 1 -0.00775373 -0.00326372 -0.0684463 0.000116 -4.33978 -0.330047 0.490085 2650 
1712 1 -0.013828 -0.0268581 -0.0674812 0.000116 -6.37906 0.311767 1.26538 2650 
3227 1 -0.0130539 -0.0262136 -0.0673235 0.000423 -7.49344 -0.00959289 1.45345 2650 
2000 1 -0.0137398 -0.0236718 -0.0671863 0.000423 -7.47382 0.157529 1.51523 2650 
378 1 -0.0140853 -0.0223985 -0.0671156 0.000423 -7.48266 0.132801 1.561 2650 
1047 1 -0.0153041 -0.0182847 -0.0671611 0.000116 -8.94629 0.536522 2.04464 2650 
3174 1 -0.0122847 -0.0150945 -0.0678538 4.2e-05 -7.26572 0.38418 1.30452 2650 
1169 1 -0.0128691 -0.00816564 -0.0676716 0.000116 -4.43084 1.17957 0.812995 2650 
4058 1 -0.00831413 -0.00634699 -0.0678378 0.000656 -4.36737 0.000712078 0.548916 2650 
1393 1 -0.0175489 -0.0285751 -0.0666071 0.000116 -5.62564 -0.669577 1.53629 2650 
2702 1 -0.0174195 -0.0283417 -0.0666387 0.000116 -5.90758 -0.386684 1.61662 2650 
2848 1 -0.016429 -0.0252882 -0.0669708 4.2e-05 -7.45624 -0.110807 1.8413 2650 
636 1 -0.0166684 -0.0240976 -0.0668354 0.000116 -7.61917 0.0299006 1.8685 2650 
3261 1 -0.0177722 -0.0173756 -0.0665485 0.000116 -6.39891 -0.291075 1.72785 2650 
1468 1 -0.0164647 -0.0128512 -0.0665588 0.000423 -6.09092 -0.617206 1.5109 2650 
4124 1 -0.0164229 -0.0114135 -0.0668888 0.000116 -6.91901 0.650767 1.69753 2650 
3764 1 -0.0148132 -0.0105185 -0.0669537 0.000423 -4.85746 0.193367 1.05963 2650 
1333 1 -0.0172997 -0.00584603 -0.0663566 0.000423 -4.0482 -0.183101 1.02567 2650 
542 1 -0.0190113 -0.0015683 -0.0662848 4.2e-05 -5.97291 -0.186043 1.69484 2650 
1752 1 -0.0173043 -0.00145324 -0.0667497 4.2e-05 -6.52121 -0.186466 1.68905 2650 
4249 1 -0.0178032 -0.000116061 -0.0665437 0.000116 -6.01863 -0.00189652 1.62249 2650 
1520 1 -0.0199085 -0.0388825 -0.0659363 0.000116 -7.48382 -0.0389294 2.24708 2650 
822 1 -0.0185116 -0.0171095 -0.0660292 0.000423 -6.50644 -0.143355 1.80578 2650 
2166 1 -0.0202534 -0.0153414 -0.0658298 0.000116 -6.41681 -0.0796188 2.02259 2650 
2938 1 -0.0203684 -0.00880451 -0.0657865 0.000116 -6.24935 -0.195086 1.99235 2650 
2527 1 -0.0210906 -4.25232e-05 -0.065651 4.2e-05 -5.53871 -0.0208027 1.86108 2650 
578 1 -0.0215155 -0.0308073 -0.0651143 0.000423 -7.34736 -0.0771411 2.42661 2650 
2998 1 -0.0204631 -0.0244819 -0.0654492 0.000423 -7.2457 -0.0572096 2.27282 2650 
3418 1 -0.0216102 -0.0203831 -0.0650998 0.000423 -6.78066 -0.121481 1.96264 2650 
1061 1 -0.0231934 -0.0152022 -0.0648615 0.000116 -6.39373 0.133689 2.2757 2650 
2012 1 -0.0204205 -0.0148641 -0.0654593 0.000423 -6.45003 -0.0873141 2.08935 2650 
4100 1 -0.0208648 -0.0133106 -0.0653207 0.000423 -6.2172 0.127348 2.10839 2650 
186 1 -0.0229611 -0.00206213 -0.0649443 0.000116 -4.84108 -0.127816 1.70417 2650 
1794 1 -0.0241553 -0.0331823 -0.0641829 0.000423 -7.39415 -0.200365 2.79668 2650 
3282 1 -0.0254444 -0.0160015 -0.0640919 4.2e-05 -5.45055 -0.401646 2.15348 2650 
3269 1 -0.0254475 -0.00958264 -0.0640115 0.000116 -3.10882 -0.217272 1.23558 2650 
689 1 -0.0258151 -0.0396852 -0.0635335 0.000423 -7.48656 -0.0422259 3.0292 2650 
3066 1 -0.0267166 -0.0285771 -0.0635722 4.2e-05 -6.56622 -0.241108 2.76207 2650 
856 1 -0.0262286 -0.0248789 -0.063695 0.000116 -7.77705 -0.483878 3.20185 2650 
3692 1 -0.0275903 -0.014166 -0.0631177 0.000116 -6.34443 -0.00235954 2.75837 2650 
1050 1 -0.0277266 -0.0199302 -0.0630572 0.000116 -5.10974 -0.387938 2.24089 2650 
312 1 -0.0306193 -0.0302473 -0.0617053 0.000116 -6.35847 -0.424009 3.15668 2650 
1363 1 -0.0296201 -0.0244991 -0.0618511 0.000423 -6.89072 -0.0307549 3.3003 2650 
3583 1 -0.0312497 -0.0390675 -0.0613877 0.000116 -9.07411 0.49228 4.62079 2650 
336 1 -0.0301073 -0.038271 -0.0613579 0.000656 -7.30775 -0.0138021 3.59506 2650 
476 1 -0.0313877 -0.0271879 -0.060974 0.000423 -6.35555 -0.0153003 3.28106 2650 
2014 1 -0.0311531 -0.0166173 -0.0610932 0.000423 -6.3928 -0.125077 3.25101 2650 
2821 1 -0.0312901 -0.00192315 -0.0613671 0.000116 -5.82723 0.0165368 2.9901 2650 
1563 1 -0.0331035 -0.0313386 -0.0600603 0.000423 -6.82302 0.0176954 3.76068 2650 
1964 1 -0.0333284 -0.0260823 -0.0602846 0.000116 -6.60043 0.659427 3.65067 2650 
1555 1 -0.0345314 -0.039047 -0.0592497 0.000423 -6.79521 -0.0597086 3.95447 2650 
2232 1 -0.0347142 -0.0340147 -0.0591429 0.000423 -6.66747 -0.0350577 3.90537 2650 
4210 1 -0.0341712 -0.0328781 -0.0594588 0.000423 -6.72212 0.00397029 3.85089 2650 
3041 1 -0.0352616 -0.0321309 -0.0591755 0.000116 -6.22064 0.150411 3.70026 2650 
3024 1 -0.0346866 -0.0172142 -0.0595128 0.000116 -6.17304 -0.486793 3.60549 2650 
1231 1 -0.0350114 -0.0264505 -0.0589679 0.000423 -6.37508 -0.0202876 3.79526 2650 
2343 1 -0.035249 -0.0256111 -0.0588263 0.000423 -6.6633 -0.0332518 4.01907 2650 
3642 1 -0.0359335 -0.0251191 -0.0584102 0.000423 -6.60284 0.047132 4.08211 2650 
1136 1 -0.0352845 -0.0246885 -0.0588039 0.000423 -6.62262 0.00285512 3.96297 2650 
14 1 -0.0356557 -0.0239409 -0.0585798 0.000423 -6.65588 -0.0294755 4.04056 2650 
1721 1 -0.0377931 -0.0340089 -0.0575911 0.000116 -6.11813 0.408424 4.0094 2650 
632 1 -0.0371601 -0.0279469 -0.0580016 0.000116 -6.0794 -0.321369 3.90319 2650 
2451 1 -0.0373319 -0.0345307 -0.0575264 0.000423 -6.15022 0.245671 3.99505 2650 
27 1 -0.0381798 -0.0316798 -0.0569674 0.000423 -6.17153 0.00855459 4.12578 2650 
3729 1 -0.0379929 -0.0290273 -0.0568145 0.000656 -6.59387 -0.0526391 4.37138 2650 
4021 1 -0.0382395 -0.0239966 -0.0572951 0.000116 -6.02347 -0.161119 4.01412 2650 
1916 1 -0.0378854 -0.0224144 -0.0571636 0.000423 -6.3801 -0.124183 4.2258 2650 
3531 1 -0.0386064 -0.0275144 -0.0566796 0.000423 -6.49846 0.0974334 4.43232 2650 
2530 1 -0.0390863 -0.0207164 -0.0560674 0.000656 -6.18205 0.0137914 4.30023 2650 
710 1 -0.0394245 -0.0149754 -0.0560919 0.000423 -5.9575 -0.142177 4.13025 2650 
1314 1 -0.0396881 -0.0078886 -0.0563889 4.2e-05 -6.86602 -0.885206 4.84683 2650 
3360 1 -0.0411775 -0.0437715 -0.0552214 0.000116 -5.85933 0.413203 4.36299 2650 
1030 1 -0.0404092 -0.0384176 -0.0554079 0.000423 -5.87734 -0.23248 4.28077 2650 
3543 1 -0.0398449 -0.0216811 -0.0558153 0.000423 -6.06313 -0.0768553 4.32312 2650 
4254 1 -0.0404339 -0.0127065 -0.0557358 0.000116 -5.92039 0.310375 4.27524 2650 
479 1 -0.0413201 -0.0194799 -0.0547319 0.000423 -6.36355 -0.10392 4.79085 2650 
549 1 -0.0414047 -0.0099903 -0.0551233 4.2e-05 -4.97449 0.482057 3.76375 2650 
1056 1 -0.042598 -0.0366589 -0.0541318 0.000116 -5.90157 -0.260265 4.637 2650 
2803 1 -0.0426835 -0.0368857 -0.0540642 0.000116 -5.19307 0.135589 4.09987 2650 
2663 1 -0.0428145 -0.0341729 -0.0535718 0.000423 -6.17028 0.367883 4.93196 2650 
2576 1 -0.0428569 -0.0299526 -0.053537 0.000423 -5.79109 -0.0726567 4.54024 2650 
3372 1 -0.0435649 -0.0276858 -0.0533374 0.000116 -6.09047 -0.102938 4.90045 2650 
3464 1 -0.0442076 -0.024213 -0.052817 0.000116 -5.59364 0.364539 4.7086 2650 
3640 1 -0.042959 -0.0190611 -0.0534555 0.000423 -5.55457 -0.0699808 4.44765 2650 
1224 1 -0.0428945 -0.0165675 -0.0535071 0.000423 -5.5011 -0.221352 4.42225 2650 
1596 1 -0.0436469 -0.000116044 -0.0532909 0.000116 -4.98335 0.000364265 4.07948 2650 
1046 1 -0.0434667 -0.000116018 -0.0534383 0.000116 -5.00312 0.000196302 4.05465 2650 
555 1 -0.0437353 -0.0410024 -0.0525203 0.000656 -6.33495 -0.124384 5.236 2650 
4251 1 -0.0444609 -0.0239829 -0.0526075 0.000116 -5.74499 0.348134 4.90284 2650 
3734 1 -0.0437876 -0.0226467 -0.0524705 0.000656 -5.77121 0.0307717 4.88208 2650 
3850 1 -0.044878 -0.040209 -0.0518544 0.000423 -6.21709 -0.141207 5.4065 2650 
1016 1 -0.0448977 -0.030736 -0.0518102 0.000423 -5.74872 -0.0645333 5.02979 2650 
2112 1 -0.0448073 -0.0238916 -0.0519122 0.000423 -5.89624 0.00967037 5.05277 2650 
2382 1 -0.0458239 -0.0151952 -0.0514311 0.000116 -3.70291 -0.3485 3.32755 2650 
2337 1 -0.0459907 -0.0267293 -0.0508696 0.000423 -5.16361 0.181733 4.58906 2650 
2462 1 -0.0458573 -0.0256747 -0.0509859 0.000423 -5.4477 0.301465 4.95391 2650 
3978 1 -0.0464914 -0.0230349 -0.0504101 0.000423 -5.79214 0.118022 5.35177 2650 
2116 1 -0.047103 -0.0374035 -0.0498372 0.000423 -4.55604 0.319821 4.37793 2650 
992 1 -0.0464074 -0.0348659 -0.0501684 0.000656 -5.89829 -0.0561228 5.44041 2650 
2430 1 -0.0464071 -0.0334362 -0.0501693 0.000656 -5.74344 0.0334943 5.28008 2650 
4309 1 -0.047237 -0.0287756 -0.0497062 0.000423 -5.3741 0.110688 5.12089 2650 
4212 1 -0.047291 -0.0228992 -0.0496612 0.000423 -5.42493 -0.0339809 5.16492 2650 
3443 1 -0.0469424 -0.0221366 -0.0499917 0.000423 -5.55264 0.137416 5.2101 2650 
868 1 -0.0469802 -0.0158712 -0.0503774 0.000116 -4.04416 -0.502822 3.79757 2650 
1372 1 -0.0478371 -0.0308542 -0.0491341 0.000423 -5.43939 0.0293025 5.26421 2650 
1915 1 -0.0473982 -0.0295936 -0.0495568 0.000423 -5.34627 0.12499 5.2142 2650 
3084 1 -0.0471027 -0.0250983 -0.0495234 0.000656 -5.81387 0.0883148 5.53326 2650 
1838 1 -0.0483118 -0.0219027 -0.0491014 0.000116 -5.2776 0.299956 5.21559 2650 
4011 1 -0.0480237 -0.0217187 -0.049383 0.000116 -5.62588 0.170416 5.47468 2650 
3376 1 -0.0488633 -0.0213663 -0.0485525 0.000116 -5.41559 0.230573 5.44787 2650 
3656 1 -0.049488 -0.0316852 -0.0474746 0.000423 -5.00885 -0.0446927 5.27149 2650 
4082 1 -0.0496667 -0.0181974 -0.0472878 0.000423 -5.03849 -0.251255 5.27793 2650 
169 1 -0.0497934 -0.00680752 -0.0475994 0.000116 -4.45065 -0.49108 4.65671 2650 
228 1 -0.0495588 -0.0262414 -0.0470632 0.000656 -5.58627 -0.0282408 5.89363 2650 
1060 1 -0.050391 -0.0260085 -0.046965 0.000116 -5.66907 0.338488 6.0902 2650 
1020 1 -0.0502022 -0.0241996 -0.0467168 0.000423 -5.27168 -0.0821768 5.69277 2650 
3815 1 -0.0502045 -0.0180679 -0.047143 0.000116 -5.25227 0.124807 5.42504 2650 
4380 1 -0.0514633 -0.0253928 -0.0458991 4.2e-05 -5.76512 0.973893 6.45976 2650 
1813 1 -0.0507694 -0.0208912 -0.0461024 0.000423 -5.01736 -0.408876 5.5208 2650 
2427 1 -0.0514587 -0.0299528 -0.0449805 0.000656 -4.81535 -0.0277734 5.49615 2650 
1825 1 -0.0518588 -0.00305082 -0.0453391 0.000116 -4.33925 0.945229 4.94623 2650 
4062 1 -0.0520207 -0.0168983 -0.0443305 0.000656 -3.95415 -0.0993171 4.6187 2650 
1341 1 -0.0522964 -0.0144046 -0.044363 0.000423 -4.00706 0.0920058 4.73123 2650 
3351 1 -0.0533165 -0.0313043 -0.0436172 0.000116 -4.25453 -0.623601 5.21043 2650 
2818 1 -0.05349 -0.0288427 -0.0434039 0.000116 -4.7829 -0.0837525 5.89747 2650 
1325 1 -0.052544 -0.0270654 -0.0437076 0.000656 -4.8096 -0.010118 5.76177 2650 
2800 1 -0.0531771 -0.0230501 -0.0433022 0.000423 -4.90203 0.00113232 5.97477 2650 
1095 1 -0.0533652 -0.00909522 -0.0436743 4.2e-05 -3.93055 -0.145616 4.79262 2650 
1193 1 -0.0535028 -0.00427013 -0.0433876 0.000116 -2.04654 -0.054078 2.48783 2650 
146 1 -0.0534423 -0.0239875 -0.0429754 0.000423 -4.82441 0.00261461 6.00069 2650 
3577 1 -0.0540987 -0.0226372 -0.0426419 0.000116 -5.17661 -0.339657 6.57384 2650 
3358 1 -0.0540624 -0.0192451 -0.0426877 0.000116 -5.21442 0.0191819 6.62231 2650 
3882 1 -0.053573 -0.00821973 -0.0427834 0.000423 -2.09864 -0.283888 2.3679 2650 
2670 1 -0.0542159 -0.0368988 -0.0419937 0.000423 -4.57178 -0.236476 5.90529 2650 
2002 1 -0.0539973 -0.0241611 -0.0422754 0.000423 -4.74306 -0.0122121 6.0668 2650 
854 1 -0.0545095 -0.00179039 -0.0421154 0.000116 -4.42034 0.305967 5.71663 2650 
1912 1 -0.0550154 -0.0276993 -0.0409429 0.000423 -4.32547 -0.372647 5.8085 2650 
1560 1 -0.0549527 -0.0248341 -0.0410258 0.000423 -4.70336 0.0495599 6.29699 2650 
4260 1 -0.0551547 -0.0179787 -0.0412671 0.000116 -4.06851 0.518906 5.41183 2650 
440 1 -0.0554086 -0.00548759 -0.0410492 4.2e-05 -1.94878 -0.0944715 2.67901 2650 
4303 1 -0.0552904 -0.0285653 -0.0405704 0.000423 -4.24946 -0.416773 5.80352 2650 
1107 1 -0.0558131 -0.0382974 -0.0394467 0.000656 -4.69705 -0.07554 6.65235 2650 
3514 1 -0.0554423 -0.0250074 -0.0399655 0.000656 -4.59396 0.00751549 6.32201 2650 
3540 1 -0.0556969 -0.0236374 -0.04001 0.000423 -4.48461 0.0999961 6.25771 2650 
1669 1 -0.056154 -0.0223078 -0.0393657 0.000423 -4.31632 0.0576744 6.19483 2650 
486 1 -0.0560948 -0.0205566 -0.0394501 0.000423 -5.47687 -0.0575083 7.79828 2650 
1002 1 -0.0561323 -0.0236869 -0.038993 0.000656 -4.38153 -0.0732172 6.2634 2650 
3783 1 -0.056618 -0.022586 -0.0386958 0.000423 -4.2882 0.0837653 6.25729 2650 
4095 1 -0.0563672 -0.0215483 -0.0390601 0.000423 -4.20806 0.136566 6.05856 2650 
2768 1 -0.0566352 -0.0143166 -0.03867 0.000423 -3.63926 -0.0680642 5.34465 2650 
2708 1 -0.0574833 -0.0407709 -0.0379561 0.000116 -4.42009 -0.794183 6.69673 2650 
21 1 -0.0571685 -0.0325496 -0.0378777 0.000423 -4.26175 -0.100625 6.44015 2650 
1104 1 -0.0565437 -0.0312419 -0.0383939 0.000656 -4.35332 0.0407135 6.4007 2650 
3393 1 -0.057648 -0.0251548 -0.03784 4.2e-05 -4.38228 -0.33868 6.67461 2650 
1227 1 -0.0572443 -0.0231581 -0.0377625 0.000423 -4.25565 0.134235 6.4 2650 
1119 1 -0.0568335 -0.0217299 -0.038378 0.000423 -4.15324 0.362297 6.14931 2650 
3328 1 -0.0569697 -0.0204558 -0.0381763 0.000423 -5.16831 -0.0576689 7.70665 2650 
1058 1 -0.058129 -0.0186383 -0.0369592 0.000116 -3.89665 -0.442422 6.12323 2650 
3477 1 -0.0575958 -0.0066473 -0.0377848 0.000116 -1.70281 -0.136759 2.61814 2650 
78 1 -0.0584699 -0.0188719 -0.0364166 0.000116 -4.75679 0.462628 7.62454 2650 
2967 1 -0.0583575 -0.0198858 -0.0355761 0.000656 -3.85045 -0.14447 6.28355 2650 
204 1 -0.0600776 -0.0276018 -0.0336272 0.000116 -3.48881 -0.739536 6.27351 2650 
1055 1 -0.0607278 -0.0118325 -0.0325025 0.000116 -3.09997 -0.442005 6.02032 2650 
2593 1 -0.0611478 -0.0124905 -0.0316951 0.000116 -1.88689 -0.0863426 3.53394 2650 
1995 1 -0.0609488 -0.00788361 -0.0314314 0.000423 -3.34557 0.177481 6.35658 2650 
34 1 -0.0616908 -0.020209 -0.0299543 0.000423 -3.34001 0.238451 6.8678 2650 
3039 1 -0.00015742 -0.0190508 -0.0688839 0.000116 -7.98247 0.0576284 0.0198044 2650 
330 1 -0.0625169 -0.0365184 -0.0290944 4.2e-05 -3.95023 -0.989043 8.47083 2650 
3673 1 -0.0618913 -0.00724036 -0.0295346 0.000423 -1.79502 0.702743 3.88174 2650 
4373 1 -0.0625357 -0.00056821 -0.0290595 4.2e-05 -3.37691 -0.18432 7.25159 2650 
1072 1 -0.0625418 -0.00115055 -0.0288692 0.000116 -2.79009 -0.180184 6.05796 2650 
3527 1 -0.0626982 -0.0230306 -0.0277819 0.000423 -3.14067 0.0503154 7.08001 2650 
1202 1 -0.0633056 -4.92072e-05 -0.0273414 4.2e-05 -2.36571 0.0178119 5.47389 2650 
1833 1 -0.0631901 -0.000124611 -0.0274227 0.000116 -2.38118 -0.00369326 5.46424 2650 
3633 1 -0.063205 -0.0285439 -0.0266094 0.000423 -3.0081 -0.0590347 7.2562 2650 
121 1 -0.0633526 -0.027719 -0.0256444 0.000656 -2.94669 -0.0253985 7.2642 2650 
1365 1 -0.0635724 -0.024781 -0.0257177 0.000423 -2.89782 0.293922 7.17635 2650 
2081 1 -0.064072 -0.0238852 -0.0254943 4.2e-05 -2.86894 0.258369 7.20385 2650 
2937 1 -0.0638353 -0.0128842 -0.0258868 0.000116 -1.84791 0.0883911 4.49552 2650 
3311 1 -0.0639259 -0.023887 -0.0248276 0.000423 -2.70397 0.387483 6.92864 2650 
4110 1 -0.0640334 -0.02209 -0.0245493 0.000423 -2.80772 0.169633 7.32291 2650 
235 1 -0.0643506 -0.0231309 -0.0237063 0.000423 -2.7035 0.010202 7.3276 2650 
4366 1 -0.064486 -0.0223893 -0.0242185 0.000116 -2.76817 0.200591 7.40524 2650 
3233 1 -0.000742055 -0.00518403 -0.0240728 0.000423 -0.103559 -0.277955 -3.53949 2650 
3118 1 -0.0645915 -0.0309112 -0.0230439 0.000423 -2.98299 0.0656818 8.35039 2650 
1934 1 -0.064868 -0.0220515 -0.023176 0.000116 -2.4051 -0.25935 6.69978 2650 
2813 1 -0.0648426 -0.0139796 -0.0232479 0.000116 -2.56994 0.126106 7.17499 2650 
419 1 -0.0648556 -0.0112798 -0.0232131 0.000116 -1.75951 0.348646 4.94691 2650 
3350 1 -0.0648377 -0.00322966 -0.0232615 0.000116 -2.10827 -0.0841884 5.86286 2650 
201 1 -0.0649343 -0.00219177 -0.0229894 0.000116 -2.42763 -0.425778 6.83209 2650 
3947 1 -0.0647084 -0.0296001 -0.0220025 0.000656 -2.56152 0.0211064 7.53065 2650 
2162 1 -0.065285 -0.0209956 -0.0219749 0.000116 -2.5607 0.261015 7.5952 2650 
3602 1 -0.0652327 -0.019834 -0.0221291 0.000116 -2.86271 0.268692 8.44178 2650 
3933 1 -0.0652484 -0.0116528 -0.0220846 0.000116 -2.596 0.498376 7.66356 2650 
4177 1 -0.0651101 -0.0286196 -0.0215349 0.000423 -2.48418 0.0566281 7.54963 2650 
791 1 -0.0652321 -0.0226994 -0.0211583 0.000423 -2.29691 -0.178126 7.12842 2650 
160 1 -0.0650307 -0.0205437 -0.0217724 0.000423 -2.78366 -0.0324577 8.28436 2650 
3748 1 -0.0652102 -0.0178353 -0.0212251 0.000423 -2.25926 -0.182441 6.83782 2650 
3319 1 -0.0653428 -0.0425422 -0.020816 0.000423 -2.69871 0.166134 8.49386 2650 
4306 1 -0.0652397 -0.0188569 -0.0211366 0.000423 -2.2063 0.0141385 6.72267 2650 
55 1 -0.0653989 -0.0167549 -0.020638 0.000423 -2.14762 0.0622631 6.81382 2650 
1500 1 -0.0658417 -0.0237796 -0.0202448 0.000116 -1.9668 -1.20771 6.40687 2650 
4338 1 -0.0658411 -0.0165764 -0.0202468 0.000116 -1.9408 -0.355066 6.36141 2650 
1808 1 -0.0656895 -0.0162272 -0.0196939 0.000423 -1.96111 -0.419321 6.49214 2650 
1154 1 -0.0658639 -0.0236094 -0.0191015 0.000423 -1.97096 -0.0509704 6.81733 2650 
1116 1 -0.065999 -0.0357406 -0.0186321 0.000423 -2.09448 -0.03009 7.43654 2650 
1474 1 -0.0660406 -0.0285292 -0.0184848 0.000423 -2.00517 0.0987164 7.17796 2650 
1130 1 -0.0661377 -0.0240552 -0.018132 0.000423 -1.92037 -0.0242574 6.94113 2650 
483 1 -0.0663493 -0.0428275 -0.0173424 0.000423 -2.31765 -0.0224751 8.87738 2650 
8 1 -0.0660154 -0.0393593 -0.0176996 0.000656 -2.368 -0.15273 8.80753 2650 
3650 1 -0.0661958 -0.0309142 -0.0179183 0.000423 -2.00501 -0.0573091 7.34239 2650 
3385 1 -0.0666917 -0.025714 -0.0172394 0.000116 -1.87789 0.323464 7.26699 2650 
1514 1 -0.0668231 -0.0271782 -0.0167233 0.000116 -1.7138 -0.268593 6.82666 2650 
601 1 -0.0664301 -0.0221359 -0.017028 0.000423 -1.90909 -0.174528 7.41409 2650 
2829 1 -0.0667194 -0.0209873 -0.0171321 0.000116 -1.88484 0.122786 7.32453 2650 
1509 1 -0.0667349 -0.0188231 -0.0170708 0.000116 -2.00284 0.426788 7.81627 2650 
3013 1 -0.0665627 -0.015986 -0.0165035 0.000423 -1.55898 -0.165766 6.18013 2650 
606 1 -0.000183 0.00112903 -0.016592 0.000116 0 -0.011753 0 2650 
302 1 -0.00201975 0.0104153 -0.0166066 0.000116 -0.0347922 0.0241041 0.0152166 2650 
175 1 -0.067039 -0.0385712 -0.0158355 0.000116 -2.20097 0.173424 9.31893 2650 
1956 1 -0.0670672 -0.000342019 -0.0157162 0.000116 -1.62588 0.00405292 6.95916 2650 
2013 1 -0.00302115 0.00313046 -0.0158458 0.000423 -0.00154235 0.00221798 0.00156406 2650 
2301 1 -0.00435508 0.00329828 -0.0159922 4.2e-05 -0.00116259 -0.0070103 0.00459775 2650 
4227 1 -0.000314042 0.00337678 -0.0165074 0.000116 0.00593372 -0.017543 0.0130313 2650 
2283 1 -0.00353118 0.00462693 -0.0163686 0.000116 -0.00010552 0.00956354 0.000789399 2650 
2520 1 -0.000163361 0.00490314 -0.0165126 4.2e-05 0.00318265 0.000380138 0.00682554 2650 
978 1 -0.00193849 0.0062133 -0.0164455 0.000116 0.0180122 -0.00353228 -0.00159853 2650 
3934 1 -0.001977 0.00589103 -0.016218 0.000116 0 -0.011753 0 2650 
3365 1 -0.00154783 0.00626298 -0.0163423 0.000116 0.015804 0.0241832 0.0212134 2650 
2726 1 -0.000603968 0.0091969 -0.0164893 0.000116 -0.00741369 0.00988612 -0.041436 2650 
3150 1 -0.00234091 0.0100394 -0.0160863 0.000116 -0.0182263 -0.0087302 -0.0269448 2650 
938 1 -0.00153813 0.00993592 -0.0160802 0.000116 -0.00119823 0.000558801 -0.00633771 2650 
1483 1 -0.000494446 0.0105762 -0.0164304 0.000423 -0.000431738 0.0094693 0.00416488 2650 
3007 1 -0.00299404 0.0115985 -0.0160338 0.000423 -0.00754521 0.0118776 -0.00214285 2650 
371 1 -0.000586531 0.0120218 -0.0162939 0.000423 -0.00963196 0.00951459 -0.00479058 2650 
3051 1 -0.00191135 0.0132023 -0.0162123 0.000116 0.163555 -0.227841 -0.0207843 2650 
188 1 -0.00326848 0.013704 -0.0160987 0.000116 -0.0148612 0.0228045 0.00418427 2650 
2182 1 -0.00149151 0.0142474 -0.0160492 0.000116 0.00266263 0.0360122 0.0211071 2650 
2713 1 -0.000700345 0.0161551 -0.0158639 0.000116 0.00037122 0.035974 0.00535071 2650 
1717 1 -0.00411794 0.0313497 -0.0163036 0.000116 -0.014717 0.0706098 -0.0348682 2650 
2264 1 -0.000757002 0.0522029 -0.0163432 0.000116 -0.0637592 0.11185 0.0253368 2650 
1613 1 -0.0671295 -0.0237109 -0.0154475 0.000116 -1.83002 -0.0768435 7.95618 2650 
649 1 -0.0672123 -0.0156938 -0.0150815 0.000116 -1.3924 -0.799747 6.20901 2650 
30 1 -0.00236282 -0.00249346 -0.0153778 0.000423 -0.0139928 -0.0214008 0.00726417 2650 
3011 1 -0.000318283 -0.00275579 -0.0151111 0.000423 0.0180353 -0.0317081 -0.0392676 2650 
3599 1 -5.99e-05 -0.0019135 -0.0153239 0.000116 0.0260231 -0.00977207 -0.00117121 2650 
3576 1 -0.000230395 -0.00137789 -0.0156847 0.000116 0.0561059 0.00120064 -0.0311085 2650 
999 1 -5.36773e-05 0.000333792 -0.0157559 0.000656 -0.00841998 -0.0161411 -0.0218233 2650 
2399 1 -0.002418 0.00134303 -0.015541 0.000116 0 -0.011753 0 2650 
3637 1 -0.00548112 0.0043437 -0.0152614 0.000423 -0.00704251 0.0124689 0.006236 2650 
889 1 -0.00110079 0.00472837 -0.0157415 0.000656 0.0221019 0.0158351 0.0220207 2650 
1611 1 -0.00120237 0.00405766 -0.0150327 0.000116 0.0444256 -0.019621 0.0278665 2650 
1679 1 -0.00432843 0.00514363 -0.0157339 0.000423 -0.00453172 0.0157125 0.00260684 2650 
3830 1 -0.006879 0.00744303 -0.015411 4.2e-05 0 -0.011753 0 2650 
2438 1 -0.00626761 0.00724428 -0.0151621 0.000423 -0.00468347 -0.000292455 -0.00123863 2650 
70 1 -0.00215864 0.0135014 -0.0155074 0.000116 0.0560864 0.0328811 0.00597028 2650 
2793 1 -0.000890642 0.013424 -0.0151902 0.000423 0.00400332 0.0260717 0.000754087 2650 
3838 1 -0.00513876 0.0144164 -0.0154374 0.000656 0.0157867 0.0260395 0.00729433 2650 
93 1 -0.00739251 0.0211625 -0.0150663 0.000116 -0.0930021 0.08494 0.0463235 2650 
2466 1 -0.00244734 0.0229727 -0.0153689 0.000423 0.0618857 0.0331724 -0.00268308 2650 
1195 1 -0.00269008 0.0355597 -0.0150482 0.000116 0.0557766 0.0782116 -0.0138054 2650 
1053 1 -0.007469 -0.00249897 -0.014946 0.000116 0 -0.011753 0 2650 
2666 1 -0.00766512 0.00297004 -0.0142166 0.000423 0.0108489 0.0809916 0.0205028 2650 
857 1 -0.00792526 0.00352471 -0.0147747 0.000116 -0.0623021 0.0193526 0.00200378 2650 
3787 1 -0.00686187 0.00395579 -0.0146889 0.000116 -0.0024271 -0.00223267 -0.0195234 2650 
1192 1 -0.00719534 0.00652397 -0.0147217 0.000116 0.00510585 0.0133553 0.012363 2650 
1827 1 -0.00264705 0.00739238 -0.0145182 0.000116 0.0445821 -0.0304485 -0.00868089 2650 
3364 1 -0.00679533 0.00863903 -0.0148798 0.000116 -0.00179506 0.0163753 -0.0232219 2650 
581 1 -0.00559648 0.00811034 -0.0144438 0.000423 0.000441693 0.00100922 0.00165067 2650 
233 1 -0.00337702 0.00884378 -0.0145911 0.000423 0.00841442 -0.00267664 0.00454736 2650 
86 1 -0.00515887 0.0109946 -0.0149289 0.000116 -0.0196067 0.0126222 0.000798653 2650 
2851 1 -0.0077714 0.0111939 -0.0149185 4.2e-05 -0.241757 -0.132402 0.104339 2650 
2781 1 -0.00567907 0.0113717 -0.0147749 0.000423 0.00977627 0.0105103 0.0120467 2650 
2969 1 -0.00269456 0.0110621 -0.0148291 0.000656 -0.00667616 0.014076 0.00443217 2650 
1228 1 -0.00268924 0.0139981 -0.0146836 0.000423 -0.0165339 0.0339414 0.00465399 2650 
2191 1 -0.00236095 0.0134805 -0.0144591 4.2e-05 -0.00764734 0.00298638 -0.00836536 2650 
3644 1 -0.0013645 0.014574 -0.0146225 0.000423 -0.00424564 0.0328325 0.0133159 2650 
3165 1 -0.00638771 0.02168 -0.0147143 0.000116 -0.042342 0.12169 0.0695027 2650 
2585 1 -0.00200073 0.0280971 -0.0149313 0.000116 -0.0221426 0.0759057 0.0070692 2650 
4064 1 -0.0670279 -0.0347254 -0.0133593 0.000656 -1.33244 -0.163178 6.29856 2650 
305 1 -0.0674773 -0.0198527 -0.0138446 0.000116 -1.48212 -0.824627 7.14009 2650 
4159 1 -0.0661345 -0.00505428 -0.0141071 4.2e-05 -3.15518 -0.120063 2.33285 2650 
4244 1 -0.00363207 -0.00324748 -0.0140785 0.000116 -0.0436806 -0.00994679 0.0125723 2650 
736 1 -0.00883814 -0.001876 -0.0140733 0.000116 -0.0307431 -0.0170391 0.0144389 2650 
509 1 -0.00787326 -0.000873484 -0.0141322 0.000116 -0.00480979 -0.0076817 0.0108723 2650 
1763 1 -0.00387646 -0.000545828 -0.0135694 0.000656 0.0110536 0.0386342 0.0470271 2650 
1991 1 -0.00857239 0.000159635 -0.0137403 0.000656 -0.0192457 -0.00223252 0.00858771 2650 
2609 1 -0.00850591 0.0012658 -0.0134359 0.000116 -0.00705034 0.0126459 0.00789545 2650 
763 1 -0.00732579 0.00324031 -0.0138719 4.2e-05 -0.0107376 -0.0192397 -0.014763 2650 
220 1 -0.00329165 0.00373536 -0.0136807 4.2e-05 0.00197382 0.00663681 0.00671825 2650 
1288 1 -0.002467 0.00507203 -0.014044 0.000116 0 -0.011753 0 2650 
3515 1 -0.00856214 0.00634313 -0.0135743 0.000656 -0.00454215 -0.00749919 0.00616721 2650 
1618 1 -0.00944435 0.0076301 -0.0138659 0.000116 0.0059414 0.00192455 -0.00369393 2650 
1769 1 -0.00863047 0.00783964 -0.0136374 0.000656 -0.00763615 -0.00751468 0.00847974 2650 
2483 1 -0.00563592 0.0074534 -0.0134993 0.000116 0.00771374 -0.0189039 -0.0218467 2650 
4190 1 -0.00931849 0.00944225 -0.0136039 0.000423 -0.00662655 0.00573878 0.00360714 2650 
842 1 -0.00789216 0.00886306 -0.0139797 0.000116 -0.0132472 -0.000581938 -0.0143857 2650 
1409 1 -0.000518922 0.008835 -0.0139095 0.000116 -0.00338114 -0.0124825 -0.00177889 2650 
793 1 -6.22422e-05 0.00941283 -0.0138902 0.000423 -0.00384688 0.00642406 -0.0108379 2650 
289 1 -0.00376804 0.0103732 -0.0137237 0.000116 -0.0130397 0.0193908 0.0119694 2650 
2453 1 -0.00594846 0.0124211 -0.014186 0.000423 0.00287214 0.0261989 -0.0126472 2650 
1802 1 -0.00322119 0.0123918 -0.0141024 0.000423 0.00500259 -0.000364755 -0.0111755 2650 
2345 1 -0.00174428 0.0137818 -0.0138993 0.000423 -0.0175833 0.0131789 -0.0282092 2650 
128 1 -0.00086866 0.0141482 -0.0140121 0.000423 -0.0122377 0.0336028 -0.0162643 2650 
3471 1 -0.00740564 0.0149747 -0.0139143 0.000116 0.00654915 0.0415659 -0.0136084 2650 
3145 1 -0.00899981 0.0150138 -0.014075 0.000116 0.00413084 0.0258652 0.0123186 2650 
1839 1 -0.00744466 0.0164507 -0.0135219 0.000116 -0.0676852 0.0211351 0.0188737 2650 