ITEM: TIMESTEP
4859100
ITEM: NUMBER OF ATOMS
4374
ITEM: BOX BOUNDS ff ff ff
-0.15 0.15
-0.15 0.06
-0.15 0.15
ITEM: ATOMS id type x y z radius vx vy vz density 
3308 1 -0.0140952 -0.0452544 -0.0671133 0.000423 -4.10494 -0.17036 0.872288 2650 
1056 1 -0.0288803 -0.0462664 -0.0625365 0.000116 -4.18368 0.277471 1.99968 2650 
418 1 -0.0325717 -0.0554528 -0.0606972 0.000116 -6.90347 -0.206221 3.70337 2650 
3602 1 -0.0366042 -0.04763 -0.0583535 0.000116 -3.13899 -0.0584643 2.00146 2650 
634 1 -0.0576258 -0.0615744 -0.0377383 0.000116 -4.2709 -0.180121 6.54412 2650 
3038 1 -0.0648139 -0.0587501 -0.0233245 0.000116 -1.7259 -0.211204 4.75983 2650 
3409 1 -0.0643271 -0.0451285 -0.0230869 0.000656 -1.86798 0.345765 5.13583 2650 
4316 1 -0.0675399 -0.0472017 -0.0118837 0.000423 -0.831746 -0.363164 4.71824 2650 
287 1 -0.0686801 -0.0496158 -0.00530202 0.000116 -0.327852 0.500396 4.09878 2650 
669 1 -0.0683182 -0.0580874 -0.00194322 0.000656 -0.135804 0.197169 4.72657 2650 
1903 1 -0.0666688 -0.0458817 0.016067 0.000423 1.19044 0.447664 4.9348 2650 
3331 1 -0.0606463 -0.0610081 0.0320047 0.000423 1.97217 -0.128951 3.47792 2650 
1598 1 -0.0577283 -0.0459732 0.0375791 0.000116 2.71066 0.532557 4.15768 2650 
2790 1 -0.0357725 -0.0454458 0.0585083 0.000423 3.80062 0.00967014 2.29182 2650 
4035 1 -0.0258133 -0.0460688 0.0638644 0.000116 4.30092 0.16882 1.76065 2650 
4308 1 -0.0244416 -0.0464342 0.0640743 0.000423 4.49726 -0.0252928 1.69927 2650 
3519 1 -0.0195756 -0.0455868 0.0654822 0.000656 4.8866 0.138917 1.47883 2650 
3945 1 -0.0190595 -0.0605723 0.0662714 4.2e-05 4.64271 -0.713672 1.33741 2650 
2201 1 -0.00107479 -0.0532344 0.0683374 0.000656 5.26942 -0.0211218 0.0688434 2650 
3252 1 -0.00473553 -0.0231015 -0.0687194 0.000116 -4.66402 0.413058 0.32369 2650 
632 1 -0.00352332 -0.0221668 -0.0687938 0.000116 -4.96092 0.0573994 0.247792 2650 
633 1 -0.00163253 -0.0205394 -0.0688651 0.000116 -3.9853 -0.481143 0.0776064 2650 
2846 1 -0.0111077 -0.0233949 -0.0680572 4.2e-05 -6.64205 -0.0818359 1.07859 2650 
892 1 -0.00152173 -0.0197939 -0.0683286 0.000656 -5.53285 0.0659746 0.103704 2650 
3391 1 -0.0108742 -0.0173926 -0.0680948 4.2e-05 -3.57443 -0.0596553 0.583674 2650 
636 1 -0.00753087 -0.0179869 -0.0684707 0.000116 -3.6938 -0.153257 0.410471 2650 
1207 1 -0.0103474 -0.0170669 -0.0681771 4.2e-05 -3.94118 0.608278 0.618339 2650 
3586 1 -0.00558582 -0.0136325 -0.0686577 0.000116 -3.9717 -0.0422798 0.333235 2650 
1363 1 -0.00551919 -0.0117818 -0.0683561 0.000423 -3.39439 -0.422073 0.270467 2650 
2738 1 -0.010016 -0.00984559 -0.0682275 4.2e-05 -3.18584 -0.249016 0.476795 2650 
1282 1 -0.00776763 -0.0100427 -0.0684456 0.000116 -3.42322 -0.171523 0.41097 2650 
935 1 -0.00582925 -0.00568048 -0.0683299 0.000423 -4.56152 -0.21655 0.371183 2650 
333 1 -0.00629312 -0.000975134 -0.0680553 0.000656 -6.13436 0.0272632 0.592548 2650 
2576 1 -0.0124123 -0.033354 -0.0674459 0.000423 -4.99558 0.21717 0.905944 2650 
811 1 -0.0126436 -0.0246799 -0.0674021 0.000423 -4.96232 0.366294 0.930893 2650 
1325 1 -0.012655 -0.0130651 -0.0671643 0.000656 -4.53345 -0.319547 0.837529 2650 
601 1 -0.0110353 -0.011978 -0.0676851 0.000423 -5.53489 0.0376066 0.890564 2650 
1175 1 -0.017636 -0.0270261 -0.066588 0.000116 -3.09246 -0.772113 0.811018 2650 
2663 1 -0.0149159 -0.0222371 -0.0669362 0.000423 -4.81216 -0.0462792 1.05731 2650 
1560 1 -0.0144129 -0.0215563 -0.0670467 0.000423 -4.72376 -0.0953326 1.025 2650 
2066 1 -0.0175691 -0.0213053 -0.0666056 0.000116 -4.4196 -0.00073066 1.19877 2650 
1475 1 -0.0140448 -0.020661 -0.0671022 0.000423 -4.80612 -0.1739 1.0613 2650 
4106 1 -0.0166476 -0.020396 -0.0664864 0.000423 -4.54068 -0.171906 0.796716 2650 
3543 1 -0.0154728 -0.0203654 -0.0668004 0.000423 -4.52646 -0.163586 0.441883 2650 
1870 1 -0.0184566 -0.0177385 -0.0664418 4.2e-05 -3.58017 -0.157129 1.01657 2650 
3066 1 -0.0180563 -0.0163197 -0.0665518 4.2e-05 -6.35178 -0.204 1.72983 2650 
4366 1 -0.0181537 -0.0150154 -0.0664488 0.000116 -4.97117 -0.425795 1.3368 2650 
406 1 -0.019827 -0.0219342 -0.0659672 0.000116 -4.49205 0.130582 1.33723 2650 
375 1 -0.0180369 -0.0175093 -0.0661633 0.000423 -4.31306 0.533962 1.19052 2650 
2057 1 -0.0192433 -0.00723865 -0.0661416 0.000116 -4.82572 0.542296 1.42766 2650 
1794 1 -0.0212529 -0.0378818 -0.0651924 0.000423 -4.47286 -0.140339 1.46392 2650 
4372 1 -0.0220872 -0.0255253 -0.0653109 4.2e-05 -3.60519 0.486257 1.17051 2650 
4309 1 -0.0214329 -0.0204864 -0.0651419 0.000423 -5.13005 0.00916781 1.69028 2650 
3874 1 -0.0208395 -0.0143946 -0.0653248 0.000423 -4.67859 -0.325536 1.37008 2650 
2818 1 -0.0250447 -0.0211056 -0.0641697 0.000116 -4.94514 -0.0411243 1.93761 2650 
2672 1 -0.0226396 -0.00463641 -0.0647173 0.000423 -3.26404 -0.0453145 1.17653 2650 
3265 1 -0.0252004 -0.000734389 -0.0641088 0.000116 -5.71402 -0.0997645 2.25608 2650 
2430 1 -0.0250189 -0.0281479 -0.0635961 0.000656 -4.7876 -0.0292427 1.85146 2650 
2800 1 -0.0264461 -0.0216904 -0.0632735 0.000423 -5.01437 0.194619 2.08175 2650 
3786 1 -0.0261055 -0.020152 -0.0637458 0.000116 -4.84567 0.512374 1.98661 2650 
259 1 -0.025258 -0.00922997 -0.0637512 0.000423 -4.25387 0.168549 1.69829 2650 
3385 1 -0.0286034 -0.0285361 -0.0626648 0.000116 -4.6049 0.351059 2.17336 2650 
1943 1 -0.0277068 -0.025783 -0.0630629 0.000116 -4.43116 0.827771 1.96026 2650 
2545 1 -0.0275353 -0.011846 -0.0628074 0.000423 -4.98914 0.362243 2.22746 2650 
27 1 -0.0296182 -0.0285905 -0.0618529 0.000423 -4.41951 0.0352125 2.10578 2650 
1068 1 -0.0295786 -0.0117834 -0.0622098 0.000116 -4.98138 0.418033 2.38194 2650 
3426 1 -0.0311376 -0.0291533 -0.0611027 0.000423 -3.46422 -1.4845 1.75761 2650 
476 1 -0.0303311 -0.024896 -0.0615055 0.000423 -4.41275 0.167223 2.18083 2650 
245 1 -0.0309768 -0.0186898 -0.0611833 0.000423 -5.09804 0.0716404 2.5631 2650 
2002 1 -0.0302475 -0.0184054 -0.0615467 0.000423 -5.12412 0.107526 2.52398 2650 
2386 1 -0.0351319 -0.0148583 -0.0592517 0.000116 -3.09331 -0.164981 1.80877 2650 
786 1 -0.0344 -0.0106148 -0.0593273 0.000423 -3.14339 -0.58597 1.84081 2650 
3650 1 -0.035136 -0.0355932 -0.0588937 0.000423 -4.99103 0.133039 2.94551 2650 
1002 1 -0.0345056 -0.0184319 -0.0589942 0.000656 -4.35292 -0.0428318 2.53597 2650 
2083 1 -0.0357355 -0.00975914 -0.0589764 4.2e-05 -2.85177 1.05761 1.71076 2650 
833 1 -0.0365327 -0.0282549 -0.0583984 0.000116 -4.04301 -0.408692 2.5182 2650 
3024 1 -0.0369501 -0.018607 -0.0581345 0.000116 -2.95602 -0.532301 1.86116 2650 
2102 1 -0.0382186 -0.0305791 -0.0566623 0.000656 -4.95352 0.133936 3.36303 2650 
2641 1 -0.0385186 -0.0262578 -0.0564587 0.000656 -4.3106 -0.18338 2.96063 2650 
1387 1 -0.0392322 -0.0240254 -0.0566198 0.000116 -3.77633 0.096793 2.63851 2650 
1312 1 -0.0399559 -0.0181024 -0.0562024 4.2e-05 -3.08757 0.433249 2.20956 2650 
3527 1 -0.0398457 -0.017574 -0.0558149 0.000423 -3.61969 -0.132092 2.58309 2650 
1922 1 -0.0402177 -0.0112099 -0.0555463 0.000423 -3.38373 0.172597 2.4972 2650 
3540 1 -0.0407831 -0.0230836 -0.0551311 0.000423 -3.84604 0.0929291 2.80844 2650 
235 1 -0.0410802 -0.0129393 -0.054912 0.000423 -3.93241 -0.341327 3.075 2650 
4095 1 -0.0419479 -0.0196176 -0.0542499 0.000423 -3.97409 -0.148683 3.16949 2650 
1587 1 -0.0422769 -0.0181715 -0.0539884 0.000423 -3.89681 0.122707 3.12608 2650 
1945 1 -0.0426921 -0.0091026 -0.0540098 0.000116 -2.76297 -0.120289 2.05801 2650 
1957 1 -0.0425758 -0.00875972 -0.0541043 0.000116 -2.84147 0.180839 2.09144 2650 
1383 1 -0.0434119 -0.0332386 -0.0534232 0.000116 -3.75001 0.462746 3.03932 2650 
1647 1 -0.0433257 -0.0203271 -0.0536478 4.2e-05 -2.95772 -0.571029 2.38966 2650 
3134 1 -0.0433792 -0.0159281 -0.0534838 0.000116 -2.8743 -0.00556408 2.31045 2650 
2000 1 -0.0445011 -0.0164813 -0.0521769 0.000423 -2.91948 -0.0410471 2.54845 2650 
4373 1 -0.0298066 -0.00434802 -0.0521233 4.2e-05 -4.60961 -0.119457 -7.98196 2650 
2670 1 -0.0450623 -0.0257809 -0.0516816 0.000423 -3.85464 0.234115 3.34252 2650 
1721 1 -0.0456672 -0.0208998 -0.0515707 0.000116 -2.97691 -0.466224 2.6125 2650 
2702 1 -0.0451939 -0.0114557 -0.0519708 0.000116 -3.74481 0.608406 3.54548 2650 
854 1 -0.0462698 -0.0356432 -0.0510231 0.000116 -3.46934 -0.33697 3.18286 2650 
2112 1 -0.045717 -0.0204996 -0.0511164 0.000423 -2.96735 -0.480382 2.65293 2650 
3652 1 -0.0457332 -0.0182671 -0.0511016 0.000423 -3.88315 0.382901 3.41735 2650 
1544 1 -0.0468497 -0.0322618 -0.0497616 0.000656 -4.22783 0.00115659 3.95071 2650 
4116 1 -0.0474825 -0.00570319 -0.0499023 0.000116 -2.40661 -0.138324 2.25998 2650 
1016 1 -0.0482432 -0.0346879 -0.0487388 0.000423 -3.42788 0.0134492 3.47097 2650 
14 1 -0.0484651 -0.0225448 -0.0485185 0.000423 -3.13188 -0.045381 3.1563 2650 
3266 1 -0.0487706 -0.0192504 -0.0486458 0.000116 -3.18967 0.352976 3.17753 2650 
3904 1 -0.0499544 -0.00629696 -0.0474294 0.000116 -2.31321 -0.248162 2.46772 2650 
115 1 -0.0504995 -0.035807 -0.0460545 0.000656 -4.09946 0.452131 4.46805 2650 
1372 1 -0.0504629 -0.0315351 -0.0464389 0.000423 -3.2385 -0.461409 3.4976 2650 
4177 1 -0.0508672 -0.0304723 -0.0459956 0.000423 -2.75386 -0.294743 3.04576 2650 
378 1 -0.0507535 -0.0135908 -0.0461201 0.000423 -2.98495 -0.109883 3.28454 2650 
3734 1 -0.0501306 -0.00686168 -0.0464554 0.000656 -3.25147 -0.169214 3.52586 2650 
4307 1 -0.0513513 -0.033566 -0.0454538 0.000423 -3.57371 -0.170099 4.02581 2650 
2634 1 -0.0515627 -0.0122345 -0.045788 4.2e-05 -2.14626 -0.349576 2.40876 2650 
1630 1 -0.0516401 -0.0119125 -0.045589 0.000116 -2.12259 -0.294426 2.44958 2650 
1912 1 -0.0520324 -0.0184107 -0.0446706 0.000423 -2.91391 -0.0726634 3.39801 2650 
3337 1 -0.0266602 -0.00596867 -0.0446488 0.000423 -4.182 -0.184948 -7.00503 2650 
146 1 -0.0524766 -0.0165916 -0.04415 0.000423 -2.66416 -0.392363 3.17118 2650 
2700 1 -0.0534323 -0.0164534 -0.0434737 0.000116 -2.18426 -0.250228 2.71178 2650 
455 1 -0.0531213 -0.0273104 -0.0433725 0.000423 -3.14193 0.136637 3.81649 2650 
1075 1 -0.0538789 -0.0264427 -0.0429195 0.000116 -5.01169 -0.344327 6.28554 2650 
223 1 -0.052893 -0.00131179 -0.0432837 0.000656 -4.65172 -0.0798366 5.64895 2650 
2806 1 -0.0546769 -0.0250582 -0.041898 0.000116 -2.58479 0.275506 3.37904 2650 
955 1 -0.055154 -0.00769995 -0.0412676 0.000116 -1.80758 -0.361725 2.44368 2650 
4250 1 -0.0554217 -0.0108598 -0.0409074 0.000116 -2.88066 0.240144 3.9058 2650 
2959 1 -0.0569729 -0.00860059 -0.0388493 4.2e-05 -1.90606 -0.175772 2.67107 2650 
2651 1 -0.0569338 -0.0384946 -0.0382289 0.000423 -3.09269 0.288353 4.60732 2650 
688 1 -0.0574272 -0.0186034 -0.0374845 0.000423 -2.64195 -0.0503438 4.13457 2650 
3079 1 -0.0574448 -0.0401785 -0.0370305 0.000656 -3.40102 -0.0206702 5.23254 2650 
2690 1 -0.0577749 -0.0158916 -0.0369349 0.000423 -1.89771 -0.437499 2.83925 2650 
1462 1 -0.0584779 -0.0363839 -0.0358221 0.000423 -3.03226 0.0687419 4.97178 2650 
1214 1 -0.0591563 -0.0220797 -0.0342293 0.000656 -3.00947 0.154687 5.32123 2650 
3577 1 -0.0600674 -0.0248518 -0.0337183 0.000116 -2.34868 0.197007 4.23018 2650 
691 1 -0.0604067 -0.0412847 -0.0324648 0.000423 -2.42004 0.188369 4.5263 2650 
1132 1 -0.0603092 -0.0305604 -0.0326465 0.000423 -2.84678 0.0998278 5.24489 2650 
3482 1 -0.0606793 -0.0241048 -0.032604 0.000116 -2.4314 0.153106 4.48512 2650 
3464 1 -0.0608521 -0.0234266 -0.0322804 0.000116 -2.04316 -0.878878 3.88219 2650 
2123 1 -0.0609481 -0.0295181 -0.0314395 0.000423 -2.77626 0.355594 5.32182 2650 
947 1 -0.0614892 -0.0239274 -0.0310499 0.000116 -1.78585 0.358129 3.53955 2650 
2224 1 -0.0611123 -0.0201652 -0.0311162 0.000423 -2.18286 -0.0910055 4.30313 2650 
295 1 -0.0612254 -0.0141474 -0.0315617 0.000116 -1.60445 -0.251523 3.01926 2650 
1813 1 -0.0616174 -0.0148699 -0.0301008 0.000423 -2.30439 0.306186 4.67455 2650 
710 1 -0.0619107 -0.00511479 -0.0294931 0.000423 -1.63747 0.0514999 3.47248 2650 
1612 1 -0.0625188 -0.0141944 -0.0289172 0.000116 -2.5411 0.121738 5.49935 2650 
3679 1 -0.0627145 -0.00757451 -0.028492 0.000116 -1.32721 -0.2884 2.85161 2650 
4142 1 -0.0628164 -0.0140626 -0.0282677 0.000116 -1.94028 0.220826 4.21192 2650 
518 1 -0.0244018 -0.00533165 -0.0280628 0.000116 -3.71377 -0.237717 -4.22944 2650 
4028 1 -0.0633378 -0.0303484 -0.0270821 0.000116 -1.86794 0.205857 4.41552 2650 
4268 1 -0.063591 -0.0226837 -0.0266709 4.2e-05 -1.95608 0.174091 4.66589 2650 
2259 1 -0.0635912 -0.00662318 -0.0264805 0.000116 -1.15361 -0.160584 2.70503 2650 
3534 1 -0.0646142 -0.0339247 -0.0229711 0.000423 -1.34345 -0.243667 4.10221 2650 
1116 1 -0.0644445 -0.0285602 -0.0234399 0.000423 -1.82557 0.0863317 5.10255 2650 
3933 1 -0.0648812 -0.00578808 -0.0231394 0.000116 -1.15175 -0.149387 3.17915 2650 
3440 1 -0.0647204 -0.036041 -0.0226688 0.000423 -2.06555 0.247541 5.84176 2650 
2211 1 -0.0644675 -0.0325428 -0.0226639 0.000656 -1.69804 0.271035 4.58654 2650 
21 1 -0.0647736 -0.0274395 -0.02252 0.000423 -1.71779 0.177692 4.82328 2650 
3443 1 -0.0647195 -0.0163932 -0.0226792 0.000423 -1.38613 0.322888 3.95957 2650 
2091 1 -0.0647421 -0.0338228 -0.0218758 0.000656 -1.39847 -0.780221 4.13384 2650 
3135 1 -0.0661314 -0.0100249 -0.0192772 0.000116 -0.980067 -0.170284 3.29178 2650 
122 1 -0.0657802 -0.0253286 -0.0185134 0.000656 -1.61559 -0.148502 5.64791 2650 
4025 1 -0.0665134 -0.0212095 -0.0179071 0.000116 -1.54004 0.180622 5.59228 2650 
3960 1 -0.0109293 -0.00545363 -0.0165838 0.000423 -0.97955 -0.421265 -1.47891 2650 
3502 1 -0.00144568 -0.00338385 -0.0173294 4.2e-05 -0.117788 -0.0340945 -1.41193 2650 
606 1 -0.000183 0.00353401 -0.016592 0.000116 0 -0.011753 0 2650 
302 1 -0.000856729 0.00583993 -0.0165949 0.000116 0.0171051 0.0203877 0.0103663 2650 
188 1 -0.000434628 0.00696978 -0.0167575 0.000116 0.0165449 0.115943 -0.0162865 2650 
2713 1 -0.000763 0.010505 -0.016767 0.000116 0 -0.011753 0 2650 
3656 1 -0.0667185 -0.0296579 -0.0158543 0.000423 -0.907085 -0.23251 3.87537 2650 
3918 1 -0.0668672 -0.0217796 -0.0165331 0.000116 -0.847246 0.411255 3.92426 2650 
2875 1 -0.004284 -0.00342464 -0.0159222 0.000423 -0.0367714 -0.0945635 -0.146921 2650 
736 1 -0.003429 0.00145901 -0.016474 0.000116 0 -0.011753 0 2650 
150 1 -0.00246339 0.000881416 -0.0162583 0.000423 -0.00913371 0.00501626 0.00203877 2650 
676 1 -0.00216106 0.00200381 -0.0163156 0.000423 -0.0135783 -0.00452781 0.0177143 2650 
1679 1 -0.00362944 0.00283312 -0.0158848 0.000423 -0.000267589 -0.00703629 -0.00433961 2650 
2013 1 -0.00281388 0.00305301 -0.0161703 0.000423 0.00298908 -0.00809762 0.00112683 2650 
2301 1 -0.004222 0.00530701 -0.016305 4.2e-05 0 -0.011753 0 2650 
3121 1 -0.00414601 0.00502449 -0.0158884 0.000423 0.0295457 0.00139416 -0.0105356 2650 
1698 1 -0.000302673 0.00549228 -0.0165019 0.000423 0.0411176 0.0348153 -1.85855e-05 2650 
1219 1 -0.00108173 0.00630222 -0.0160151 0.000656 0.0133734 0.0239605 0.00857101 2650 
3616 1 -0.00012833 0.00624825 -0.0161332 4.2e-05 0.03094 0.00266257 -0.00226281 2650 
3546 1 -0.000317001 0.00718566 -0.0161697 0.000423 0.025704 0.0149609 0.00360255 2650 
3934 1 -0.001977 0.00829601 -0.016218 0.000116 0 -0.011753 0 2650 
192 1 -0.000171643 0.00804331 -0.0162572 0.000116 0.0003015 -0.0085404 -0.100133 2650 
913 1 -0.000596139 0.0214314 -0.0164863 0.000423 -0.0131935 0.0940792 0.0439723 2650 
3328 1 -0.0668484 -0.0244619 -0.0153024 0.000423 -1.02589 0.0357677 4.55837 2650 
1991 1 -0.00458307 0.000592181 -0.0155148 0.000656 -0.0197706 -0.00214867 0.00868857 2650 
3239 1 -0.00263832 0.00153559 -0.0154921 0.000116 -0.00859694 0.0134975 -0.018679 2650 
3589 1 -0.0060171 0.00351017 -0.0156175 0.000116 0.155503 0.064687 -0.0402711 2650 
2399 1 -0.002418 0.00374801 -0.015541 0.000116 0 -0.011753 0 2650 
2313 1 -0.00507945 0.00472847 -0.0152758 0.000656 -0.00213445 0.0338551 -0.0263352 2650 
1620 1 -0.00482062 0.00641408 -0.0155074 0.000116 0.0529387 0.0514306 -0.00503745 2650 
978 1 -0.005372 0.00699401 -0.015286 0.000116 0 -0.011753 0 2650 
508 1 -0.00756421 0.00788439 -0.0150522 0.000116 -0.0751391 0.010407 0.0285118 2650 
2969 1 -0.00124171 0.00722868 -0.015098 0.000656 -0.00214235 0.0311769 0.000161156 2650 
3177 1 -0.001068 0.00935201 -0.015412 4.2e-05 0 -0.011753 0 2650 
3830 1 -0.006879 0.00984801 -0.015411 4.2e-05 0 -0.011753 0 2650 
86 1 -0.002064 0.00955201 -0.015055 0.000116 0 -0.011753 0 2650 
371 1 -0.000481508 0.0101767 -0.0150704 0.000423 0.000724313 -0.00601752 -0.0061741 2650 
938 1 -0.000869 0.010758 -0.015416 0.000116 0 -0.011753 0 2650 
568 1 -0.00445561 0.0156983 -0.0152447 0.000423 0.0183062 0.0263973 -0.10881 2650 
3216 1 -0.00443358 0.0226026 -0.0153822 0.000423 -0.00544148 0.107266 0.0543995 2650 
1357 1 -0.00490611 0.0414039 -0.0157172 0.000423 0.0681058 0.285169 -0.0155587 2650 
671 1 -0.0667997 -0.0268682 -0.0144521 0.000656 -1.21408 -0.0109613 5.51634 2650 
800 1 -0.00794414 -0.0022655 -0.0142843 0.000423 -0.230051 0.0443693 -0.205138 2650 
1053 1 -0.007469 -9.39886e-05 -0.014946 0.000116 0 -0.011753 0 2650 
2827 1 -0.00442596 -0.000453137 -0.0143094 0.000116 -0.0201753 -0.0226203 0.0017234 2650 
623 1 -0.00678149 0.000775548 -0.0143398 0.000116 -0.00477071 -0.00938024 -0.0420845 2650 
3733 1 -0.00573111 0.000600742 -0.014313 0.000656 -0.024164 0.0138988 0.0212093 2650 
2332 1 -0.00393352 0.000395627 -0.0145102 0.000423 -0.0114447 -0.00779769 0.00753018 2650 
2817 1 -0.00213655 0.000492074 -0.0146221 0.000116 0.0100645 -0.056664 0.00630574 2650 
222 1 -0.00184188 0.00122276 -0.0148459 0.000656 -0.00713779 -0.040298 -0.0148088 2650 
2922 1 -0.00580835 0.00196242 -0.0149207 0.000116 -0.0492521 -0.0166623 -0.0574868 2650 
3637 1 -0.00348908 0.00177424 -0.0147563 0.000423 -0.00927015 0.0142513 -0.0137177 2650 
220 1 -0.003649 0.00281101 -0.014897 4.2e-05 0 -0.011753 0 2650 
234 1 -0.00218381 0.00433335 -0.0144648 0.000423 0.0351287 -0.0167305 0.0264562 2650 
2283 1 -0.00114391 0.00420136 -0.0148468 0.000116 -0.0318858 -0.01081 -0.0228231 2650 
4296 1 -0.00228304 0.00529471 -0.0148155 0.000423 -0.0431702 0.0421068 0.0473826 2650 
1618 1 -0.00762117 0.00569255 -0.0149503 0.000116 -0.0316941 0.0615295 0.00665882 2650 
3365 1 -0.002315 0.00617401 -0.014552 0.000116 0 -0.011753 0 2650 
2438 1 -0.00577066 0.00677534 -0.0148332 0.000423 0.00224072 -0.00339368 -0.0261897 2650 
4227 1 -5.14056e-05 0.00750764 -0.0143975 0.000116 -0.00921828 -0.0161692 0.0154311 2650 
4190 1 -0.00802654 0.00856336 -0.0144031 0.000423 -0.009489 7.8582e-05 0.00632979 2650 
3515 1 -0.00688484 0.00812654 -0.0143012 0.000656 -0.00618896 -0.0090925 0.00826116 2650 
1617 1 -0.00451077 0.00944049 -0.0148593 0.000116 0.0304875 0.00968505 -0.0492471 2650 
1228 1 -0.00139457 0.00962047 -0.0149928 0.000423 -0.00123313 -0.0118667 -0.000623591 2650 
3669 1 -0.000331275 0.0109037 -0.0145303 0.000423 0.00220454 -0.00743356 -0.00383523 2650 
142 1 -0.00183811 0.0219016 -0.0147009 0.000423 -0.0926872 0.0526713 -0.0970482 2650 
2467 1 -0.00214186 0.0274864 -0.0148278 0.000423 0.0301791 0.103437 0.0421276 2650 
3352 1 -0.00760614 0.0537344 -0.0148703 0.000116 -1.00022 -0.00635293 0.437315 2650 
3425 1 -0.0671088 -0.0351669 -0.0141189 0.000423 -1.13765 -0.445349 5.43635 2650 
3196 1 -0.00667674 -0.00313012 -0.0141063 0.000423 -0.0151487 -0.0348726 0.0137497 2650 
330 1 -0.00590133 -0.00264363 -0.0134507 4.2e-05 -0.0696064 -0.0147686 0.0345761 2650 
3153 1 -7.67409e-07 -0.00158825 -0.0139054 0.000116 -0.0842498 -0.0374178 0.0430189 2650 
450 1 -0.00674731 0.0040804 -0.0134332 0.000656 0.0113486 0.0469175 0.00740751 2650 
3587 1 -0.00584207 0.00416691 -0.0139577 0.000116 0.00461134 0.0023037 -0.00278329 2650 
3322 1 -0.00397485 0.00422409 -0.0136641 0.000423 0.0155165 0.0110838 0.0251988 2650 
4165 1 -0.0051645 0.00512598 -0.0140146 0.000656 -0.00035358 -0.0321692 0.0084674 2650 
104 1 -0.00277633 0.00542784 -0.0135243 4.2e-05 -0.00674979 0.0150481 0.0116551 2650 
2596 1 -0.00814792 0.00636269 -0.0139737 0.000116 -0.0442582 -0.0431064 0.0384975 2650 
3950 1 -0.00607557 0.00687323 -0.0138024 0.000656 -0.0401516 -0.0144037 -0.0334096 2650 
1584 1 -0.00119925 0.00635277 -0.0141778 0.000423 -0.00963006 0.0395817 0.04039 2650 
2322 1 -0.00795508 0.0075642 -0.0137098 0.000656 -0.0108707 -0.010103 0.00337555 2650 
1288 1 -0.002467 0.00747701 -0.014044 0.000116 0 -0.011753 0 2650 
1519 1 -0.00170383 0.00716386 -0.013578 0.000116 -0.0494896 0.0341374 0.0501115 2650 
2222 1 -0.000260067 0.0082067 -0.0141305 0.000423 -0.00549102 -0.00568171 -0.00117535 2650 
581 1 -0.00558642 0.0090065 -0.0142014 0.000423 -0.000469419 -0.0102297 -0.00424824 2650 
963 1 -0.00467121 0.00942903 -0.013812 0.000116 -0.0353923 -0.062899 -0.0407773 2650 
1986 1 -0.00317503 0.00932313 -0.0141795 0.000656 0.00762539 0.0149956 0.0116892 2650 
2483 1 -0.00913682 0.00996954 -0.013425 0.000116 0.00258646 -0.0218162 0.0129531 2650 
233 1 -0.00478991 0.0101205 -0.0135122 0.000423 0.000342891 -0.00976437 -0.0328705 2650 
1476 1 -0.006941 0.010277 -0.013435 0.000423 0 -0.011753 0 2650 
4257 1 -0.00856423 0.0113589 -0.0141916 0.000116 0.0101268 -0.0416798 0.0036163 2650 
1409 1 -0.00044 0.011257 -0.013868 0.000116 0 -0.011753 0 2650 
3644 1 -0.000786506 0.0121654 -0.013795 0.000423 -0.00432743 0.00711996 -0.0325914 2650 
3632 1 -0.00898734 0.012781 -0.0138379 0.000423 -0.0221559 0.000444483 0.0133776 2650 
3932 1 -0.00558003 0.0193716 -0.0142049 0.000116 0.03152 0.0411719 0.0597923 2650 
4097 1 -0.00859802 -0.00231183 -0.0133929 0.000423 0.0242376 0.00709813 -0.00869569 2650 
2645 1 -0.0051474 -0.000881476 -0.0127942 0.000656 -0.0339684 -0.013594 0.0452752 2650 
1468 1 -0.00388873 -0.000861735 -0.0126441 0.000423 -0.0197001 -0.0470204 -0.0326717 2650 
509 1 -0.00719146 -0.000678672 -0.0131187 0.000116 -0.00521486 0.00944493 -0.0325939 2650 
4126 1 -0.00393799 -0.000134641 -0.0133917 0.000116 -0.0261531 0.0084042 0.00402279 2650 
3551 1 -0.0058822 1.77563e-05 -0.013118 0.000423 -0.0216652 0.0127841 -0.0071385 2650 
541 1 -0.00592217 0.000451634 -0.0129485 4.2e-05 -0.0143735 0.00954058 0.00936495 2650 
2525 1 -0.004063 0.00170401 -0.013231 4.2e-05 0 -0.011753 0 2650 
2619 1 -0.005851 0.00252001 -0.012854 0.000116 0 -0.011753 0 2650 
3880 1 -0.010277 0.00343601 -0.012913 0.000423 0 -0.011753 0 2650 
2609 1 -0.00886 0.00324401 -0.013248 0.000116 0 -0.011753 0 2650 
3645 1 -0.00484505 0.00342309 -0.013002 0.000423 -0.0357151 -0.0039173 0.0164321 2650 
2918 1 -0.00757 0.00459501 -0.012948 0.000116 0 -0.011753 0 2650 
3917 1 -0.003984 0.00400501 -0.012703 0.000116 0 -0.011753 0 2650 
2059 1 -0.003583 0.00421401 -0.012756 0.000116 0 -0.011753 0 2650 
3380 1 -0.00219823 0.00472022 -0.0130125 0.000116 -0.00133046 -0.0120531 0.0302183 2650 
2512 1 -0.00976177 0.00489917 -0.0129653 0.000116 0.002514 -0.0160812 -0.0313025 2650 
1171 1 -0.00821495 0.00475002 -0.0130143 0.000116 -0.0146011 -0.0168948 -0.0399555 2650 
2219 1 -0.00464761 0.00516476 -0.0128376 0.000423 0.0573797 0.046564 0.0166916 2650 
4310 1 -0.000495493 0.00534611 -0.0132945 0.000423 0.011252 0.0218425 0.101284 2650 
4078 1 -0.00852621 0.00653531 -0.012747 0.000423 -0.0196946 -0.00953845 0.00130892 2650 
1427 1 -0.002948 0.00654501 -0.013376 4.2e-05 0 -0.011753 0 2650 
3259 1 -0.0084711 0.00779643 -0.0131708 0.000116 -0.0089878 -0.00810535 0.00538998 2650 
2913 1 -0.00682962 0.00714858 -0.0128544 0.000116 -0.028239 -0.0119827 -0.0130286 2650 
1795 1 -0.008775 0.00854401 -0.012959 0.000423 0 -0.011753 0 2650 
1769 1 -0.00596617 0.00866882 -0.0132383 0.000656 -0.0180455 -0.00259761 -0.00548469 2650 
1250 1 -0.00756261 0.00922799 -0.0126615 0.000423 -0.0109693 -0.0170514 -0.0143142 2650 
205 1 -0.000744 0.00926101 -0.01334 0.000116 0 -0.011753 0 2650 
1827 1 -0.00505665 0.00972915 -0.0128591 0.000116 -0.0556457 -0.0263815 -0.0392498 2650 
3007 1 -0.000862286 0.0115697 -0.0130211 0.000423 -0.0135196 -0.00505473 -0.0280609 2650 
1775 1 -0.00822614 0.0119993 -0.0130347 0.000423 -7.29146e-05 -0.011186 -0.000346901 2650 
675 1 -0.00480107 0.019643 -0.0128706 0.000423 -0.0171714 0.0807922 0.0289201 2650 
1979 1 -0.00647417 0.0212947 -0.0129099 4.2e-05 -0.060479 0.115177 0.0648972 2650 
4220 1 -0.0677434 -0.0154097 -0.0124815 0.000116 -0.584669 -0.273117 3.23201 2650 
2413 1 -0.00729952 -0.00223583 -0.0123604 4.2e-05 -0.0826713 -0.0311639 0.0536157 2650 
2468 1 -0.003167 -0.00189799 -0.012131 0.000423 0 -0.011753 0 2650 
545 1 -0.002328 -0.00227099 -0.012432 4.2e-05 0 -0.011753 0 2650 
1763 1 -0.001143 -0.00160999 -0.012442 0.000656 0 -0.011753 0 2650 
2127 1 -0.0108599 -0.000343708 -0.0121219 0.000423 -0.129436 0.0152094 0.099489 2650 
3191 1 -0.00668391 -0.000364431 -0.0124795 0.000656 -0.0168446 0.00288294 -0.00297772 2650 
1422 1 -0.003881 0.000236011 -0.012349 4.2e-05 0 -0.011753 0 2650 
93 1 -0.0111742 0.00102935 -0.0125008 0.000116 -0.294036 0.794232 0.336766 2650 
388 1 -0.00779221 0.000841864 -0.0126025 0.000116 0.0212466 0.0335067 0.0250458 2650 
3201 1 -0.00612522 0.000818789 -0.0125785 0.000423 -0.00608722 0.0216696 0.0089772 2650 
3778 1 -0.00561602 0.000981126 -0.0118547 0.000423 -0.0441284 0.0265152 0.0540744 2650 
1799 1 -0.00323241 0.00104599 -0.012058 0.000423 7.10678e-05 -0.0118308 4.63239e-05 2650 
3956 1 -0.00902285 0.00189096 -0.012299 0.000656 -0.000640959 -0.0104529 -0.000368355 2650 
3389 1 -0.010415 0.00250201 -0.012026 0.000116 0 -0.011753 0 2650 
1125 1 -0.0049324 0.00301078 -0.0122557 0.000423 -0.0456429 0.0111646 0.0284182 2650 
2957 1 -0.00217701 0.00374942 -0.0122553 4.2e-05 0.0205169 0.0248349 -0.000218849 2650 
411 1 -0.0102597 0.00471029 -0.0120882 0.000116 -0.00787832 -0.00657823 -8.20909e-05 2650 
3826 1 -0.009208 0.00439701 -0.012552 0.000116 0 -0.011753 0 2650 
1032 1 -0.00727135 0.0041322 -0.0119818 0.000423 -0.0183694 0.00104764 -0.0575954 2650 
2912 1 -0.00615513 0.00448816 -0.012253 0.000116 0.0152844 0.00719243 -0.0503855 2650 
2194 1 -0.00241105 0.00462755 -0.0125292 4.2e-05 0.00491046 0.00111596 0.00228026 2650 
708 1 -0.00270946 0.00465783 -0.012017 0.000423 -0.00318183 -0.00599768 -0.010405 2650 
3316 1 -0.008979 0.00515001 -0.012376 0.000423 0 -0.011753 0 2650 
1261 1 -0.00745037 0.00505893 -0.0124077 0.000423 0.000611181 -0.0114942 -0.000246774 2650 
3362 1 -0.00267197 0.00516373 -0.0121993 0.000116 0.000350619 -0.00253681 -0.00404217 2650 
3446 1 -0.002592 0.00615701 -0.012627 0.000423 0 -0.011753 0 2650 
3030 1 -0.001189 0.00666001 -0.012596 0.000116 0 -0.011753 0 2650 
1237 1 -0.0102728 0.007673 -0.0126305 0.000423 -0.0167369 -0.000264958 -0.0403827 2650 
4318 1 -0.00848057 0.00784027 -0.0123938 0.000423 -0.00589465 -0.00768269 0.00318441 2650 
2547 1 -0.0113072 0.00814397 -0.0118593 0.000423 -0.015549 0.0318736 0.0269085 2650 
191 1 -0.011516 0.00862997 -0.0120129 0.000116 -0.0068407 0.0371391 0.023513 2650 
3847 1 -0.0097128 0.00863692 -0.0124069 0.000656 0.003414 -0.00345937 -0.00056311 2650 
1495 1 -0.004483 0.00812801 -0.012591 0.000116 0 -0.011753 0 2650 
3684 1 -0.00440505 0.00860375 -0.0122415 0.000116 0.00413104 -0.0230128 -0.00941473 2650 
4179 1 -0.00696934 0.00938329 -0.0119702 0.000423 -0.00767678 -0.0221048 -0.00852388 2650 
3173 1 -0.004958 0.00878901 -0.012321 4.2e-05 0 -0.011753 0 2650 
2630 1 -0.001036 0.00899701 -0.012074 4.2e-05 0 -0.011753 0 2650 
4002 1 -0.000443 0.00882101 -0.01223 0.000116 0 -0.011753 0 2650 
949 1 -0.00604621 0.0102602 -0.0125982 0.000116 -0.0176518 0.0277962 -0.00593252 2650 
1423 1 -0.00145 0.010477 -0.012526 4.2e-05 0 -0.011753 0 2650 
3106 1 -0.00641222 0.0113301 -0.0119503 0.000423 -0.042507 0.0242048 -0.0146805 2650 
959 1 -0.00568576 0.0110984 -0.0121803 0.000116 -0.0723779 0.0623805 -0.0339909 2650 
3798 1 -0.00270543 0.0122583 -0.0121359 0.000116 -0.0483102 0.213285 0.0286816 2650 
2205 1 -0.00506961 0.0132743 -0.0119506 0.000656 -0.00206311 0.000112593 -0.00429342 2650 
478 1 -0.0066377 0.0145739 -0.0125793 0.000423 -0.0255767 0.012458 -0.051203 2650 
1143 1 -0.000977951 0.0142153 -0.0123836 0.000423 0.0070315 0.0110531 -0.00616027 2650 
2109 1 -0.00535963 0.0215086 -0.0122253 0.000423 -0.0277695 0.107912 0.0279852 2650 
819 1 -0.00328793 0.0370582 -0.0120094 0.000423 0.076373 0.150736 0.0329282 2650 
1393 1 -0.0124859 -0.00285834 -0.0110657 0.000116 -0.0365642 -0.00979486 0.0367338 2650 
3505 1 -0.006952 -0.00260199 -0.011235 4.2e-05 0 -0.011753 0 2650 
1022 1 -0.002093 -0.00273199 -0.011454 0.000423 0 -0.011753 0 2650 
2172 1 -0.00974386 -0.00169127 -0.0112985 0.000116 0.0554355 0.00150652 -0.0523356 2650 
1808 1 -0.00861331 -0.00148737 -0.0111945 0.000423 -0.0860968 -0.00568456 0.0777001 2650 
440 1 -0.00061 -0.00129999 -0.011485 4.2e-05 0 -0.011753 0 2650 
2939 1 -0.00930234 0.000598698 -0.0116484 0.000116 -0.00341769 -0.0275913 0.0148239 2650 
3200 1 -0.00779793 0.000477409 -0.01178 0.000423 -0.0293082 -0.00953204 0.0229812 2650 
248 1 -0.00698963 0.00131662 -0.0113647 0.000423 -0.0134856 -0.00351132 0.050645 2650 
3894 1 -0.005583 0.00187101 -0.011098 0.000116 0 -0.011753 0 2650 
2279 1 -0.0117253 0.00285552 -0.0112576 0.000116 -0.0158908 0.0502304 0.00803902 2650 
1063 1 -0.009531 0.00242601 -0.011683 0.000116 0 -0.011753 0 2650 
1595 1 -0.00776848 0.0028606 -0.0118059 0.000423 -0.0081111 0.00198047 0.0261702 2650 
1192 1 -0.00467642 0.00314693 -0.0113245 0.000116 -0.0160738 0.0171838 -0.0228619 2650 
3383 1 -0.0119112 0.00334839 -0.0113792 0.000116 -0.0218075 -0.0186321 -0.0142315 2650 
2285 1 -0.0116324 0.00370583 -0.0114501 0.000116 -0.013552 0.00856226 -0.0313614 2650 
2294 1 -0.004894 0.00410701 -0.011565 0.000116 0 -0.011753 0 2650 
1569 1 -0.00392336 0.00414173 -0.0111253 0.000423 -0.0101165 -0.00132906 0.0156053 2650 
878 1 -0.00390836 0.00460221 -0.0112026 4.2e-05 -0.000281569 -0.00211859 -0.00050102 2650 
2474 1 -0.00251436 0.0041055 -0.0111492 0.000423 -0.00380852 -0.00865862 -0.00797376 2650 
1822 1 -0.008034 0.00516001 -0.011166 0.000116 0 -0.011753 0 2650 
1758 1 -0.00201 0.00542101 -0.01144 4.2e-05 0 -0.011753 0 2650 
281 1 -0.0123927 0.0056445 -0.0111762 0.000116 0.000455715 0.00816707 0.023163 2650 
1215 1 -0.0114495 0.00558681 -0.0111466 0.000656 -0.015302 -0.011442 0.00202643 2650 
445 1 -0.00933035 0.00688038 -0.0113413 0.000656 -0.014908 0.0240561 -0.0409596 2650 
4027 1 -0.003218 0.00655201 -0.011075 0.000116 0 -0.011753 0 2650 
2409 1 -0.002586 0.00649101 -0.011527 4.2e-05 0 -0.011753 0 2650 