ITEM: TIMESTEP
9588624
ITEM: NUMBER OF ATOMS
4346
ITEM: BOX BOUNDS ff ff ff
-0.15 0.15
-0.15 0.06
-0.15 0.15
ITEM: ATOMS id type x y z radius vx vy vz density 
406 1 -0.0806781 -0.0196553 0.00545957 0.000116 -5.47373 0.164538 10.1827 2650 
1317 1 -0.0762641 -0.0409754 0.00850861 4.2e-05 -4.10074 0.0993332 11.5269 2650 
3753 1 -0.03065 -0.0545547 -0.0613478 0.000423 -6.19147 -0.0189398 3.09385 2650 
3038 1 -0.0431791 -0.0585396 -0.0536707 0.000116 -4.5725 -0.0263325 3.68564 2650 
8 1 -0.0416873 -0.048487 -0.0541615 0.000656 -7.7096 -0.133331 5.94732 2650 
1314 1 -0.0485573 -0.0618113 -0.0489628 4.2e-05 -5.72338 0.588152 5.67896 2650 
3331 1 -0.0592328 -0.0537874 -0.0345418 0.000423 -3.0561 -0.00469089 5.66025 2650 
1550 1 -0.0623712 -0.0457808 -0.0279453 0.000656 -2.97268 -0.203342 6.67258 2650 
3840 1 -0.0655871 -0.0470796 -0.0192252 0.000656 -2.27763 -0.0679262 7.75638 2650 
4009 1 -0.0688386 -0.0475983 -0.00250517 0.000116 -0.222673 -0.333763 6.00678 2650 
312 1 -0.0688843 -0.0526867 0.000155992 0.000116 0.00620323 0.697796 6.53049 2650 
669 1 -0.0274005 -0.0600971 0.0626063 0.000656 6.81523 -0.00989485 3.01292 2650 
3219 1 -0.0236886 -0.0599133 0.064356 0.000423 4.04674 0.00954399 1.49519 2650 
2317 1 -0.0167705 -0.0470415 0.0662576 0.000656 8.34609 0.00428837 2.12522 2650 
1856 1 -0.0125521 -0.0509933 0.0677312 0.000116 5.25904 0.0873628 0.966405 2650 
2167 1 -0.00458808 -0.0313158 -0.0687319 0.000116 -6.5218 0.717615 0.462681 2650 
2165 1 -0.00534108 -0.0305435 -0.0686772 0.000116 -6.68223 0.775798 0.522084 2650 
2612 1 -0.00265157 -0.030281 -0.0688333 0.000116 -6.26487 0.0356803 0.241396 2650 
877 1 -0.00593878 -0.0285212 -0.0687023 4.2e-05 -6.62303 0.455986 0.579859 2650 
3701 1 -0.00176991 -0.0260112 -0.0688612 0.000116 -6.73517 -0.666309 0.173121 2650 
3073 1 -0.00616986 -0.0228241 -0.0686808 4.2e-05 -7.2937 -0.129032 0.649299 2650 
3724 1 -0.0036797 -0.0228061 -0.0688595 4.2e-05 -8.00093 -0.296468 0.426735 2650 
871 1 -0.0046147 -0.0157174 -0.0688016 4.2e-05 -4.04753 -0.739617 0.280435 2650 
3043 1 -0.00345364 -0.00800178 -0.0687814 0.000116 -4.47226 0.70575 0.311535 2650 
1083 1 -0.00264441 -0.00568403 -0.0688308 0.000116 -5.35295 0.662078 0.216259 2650 
893 1 -0.00718872 -0.0380573 -0.0682005 0.000423 -7.0487 0.0728331 0.736371 2650 
1905 1 -0.00938333 -0.0355421 -0.0679316 0.000423 -6.61986 -0.186209 0.898732 2650 
2557 1 -0.00711705 -0.0341656 -0.0682081 0.000423 -6.48769 -0.191236 0.705291 2650 
3015 1 -0.00110613 -0.0234837 -0.0685693 0.000423 -6.70439 -0.0645219 0.10223 2650 
2413 1 -0.00800605 -0.0168519 -0.0684912 4.2e-05 -3.84771 0.0633627 0.459188 2650 
2460 1 -0.00817917 -0.013961 -0.068089 0.000423 -5.94892 -0.140594 0.707551 2650 
1012 1 -0.00428286 -0.0104864 -0.0684449 0.000423 -5.85332 -0.134089 0.39741 2650 
612 1 -0.00572909 -0.00790432 -0.068645 0.000116 -5.11505 0.245026 0.43099 2650 
2001 1 -0.00314052 -0.0083666 -0.0685012 0.000423 -4.91021 -0.230584 0.211836 2650 
397 1 -0.00719368 -0.00569388 -0.0685075 0.000116 -7.39939 0.0105759 0.779382 2650 
3525 1 -0.00883014 -0.00525601 -0.0680077 0.000423 -5.05799 -0.176929 0.65818 2650 
433 1 -0.00711294 -0.00349859 -0.0685898 4.2e-05 -5.01788 -0.260982 0.528475 2650 
2066 1 -0.00692565 -0.00169444 -0.0685344 0.000116 -5.53253 -0.306809 0.551278 2650 
322 1 -0.00697561 -0.00146933 -0.0686039 4.2e-05 -7.1251 -0.311078 0.721602 2650 
35 1 -0.0109598 -0.0406075 -0.0676968 0.000423 -7.11327 -0.0219015 1.14399 2650 
3918 1 -0.0144058 -0.0197994 -0.0673608 0.000116 -5.90819 0.0193126 1.26367 2650 
3693 1 -0.0134069 -0.00662324 -0.0675669 0.000116 -3.13829 -0.193805 0.623255 2650 
3508 1 -0.0125381 -0.00586553 -0.0678088 4.2e-05 -3.19969 -0.10677 0.559838 2650 
3904 1 -0.0178619 -0.014656 -0.0665277 0.000116 -5.94048 -0.33678 1.59687 2650 
3679 1 -0.0210657 -0.010947 -0.0655837 0.000116 -5.52609 -0.473222 1.76438 2650 
3472 1 -0.0204369 -0.00489699 -0.0657826 0.000116 -4.85789 -0.097589 1.51801 2650 
4362 1 -0.0210794 -0.00434995 -0.0655795 0.000116 -3.10672 -0.0502371 0.978979 2650 
2132 1 -0.0225529 -0.0328222 -0.064764 0.000423 -7.62631 0.608814 2.6544 2650 
2546 1 -0.0219608 -0.0295719 -0.0649663 0.000423 -6.65676 0.0880872 2.25623 2650 
1914 1 -0.0211818 -0.0250379 -0.0652246 0.000423 -6.65275 -0.0581908 2.15499 2650 
2911 1 -0.0203548 -0.0249848 -0.0654872 0.000423 -6.63868 -0.213607 2.06665 2650 
1994 1 -0.0207015 -0.0196036 -0.0653788 0.000423 -6.32467 -0.0068781 2.00674 2650 
2269 1 -0.0225476 -0.00654731 -0.0650892 0.000116 -4.57857 -0.144514 1.58681 2650 
1646 1 -0.0216776 -0.00444125 -0.0654619 4.2e-05 -5.36756 0.308875 1.76765 2650 
1528 1 -0.026725 -0.0232755 -0.063494 0.000116 -4.24126 -0.908429 2.47014 2650 
2098 1 -0.025903 -0.021988 -0.0632477 0.000656 -7.04654 -0.0444423 2.88208 2650 
1207 1 -0.0259916 -0.0133172 -0.0638723 4.2e-05 -7.79031 0.351373 3.16347 2650 
2823 1 -0.026381 -0.000116011 -0.0636321 0.000116 -7.51553 -0.00271672 3.11163 2650 
4028 1 -0.0291275 -0.0294149 -0.0624236 0.000116 -6.65529 -0.278031 3.10162 2650 
1336 1 -0.0285375 -0.0185948 -0.0623586 0.000423 -6.32252 0.147175 2.91688 2650 
286 1 -0.0284913 -0.0140003 -0.0627163 0.000116 -5.17468 -0.51714 2.36562 2650 
3782 1 -0.0272702 -0.0126144 -0.0629231 0.000423 -5.06011 -0.117612 2.19003 2650 
2620 1 -0.0277088 -0.0111014 -0.0630662 0.000116 -4.83384 -0.452457 2.11663 2650 
1602 1 -0.029199 -0.0110393 -0.0623896 0.000116 -5.0796 -0.0435291 2.37947 2650 
1454 1 -0.027083 -0.0108611 -0.0630045 0.000423 -4.88884 0.00571048 2.06352 2650 
3566 1 -0.0284143 -0.00928067 -0.0627516 0.000116 -4.65749 -0.613333 2.11465 2650 
4360 1 -0.0293634 -0.000116056 -0.062312 0.000116 -7.26112 -0.00496366 3.4354 2650 
4087 1 -0.0290305 -0.0237588 -0.0621302 0.000423 -6.49211 -0.108364 3.03344 2650 
1461 1 -0.0298459 -0.021162 -0.0617425 0.000423 -6.52242 -0.09328 3.12836 2650 
2905 1 -0.0302124 -0.017159 -0.0615639 0.000423 -6.44595 -0.193898 3.146 2650 
1404 1 -0.0293915 -0.00766699 -0.0622997 0.000116 -3.35287 -0.228492 1.53519 2650 
1535 1 -0.0302694 -4.21706e-05 -0.0619591 4.2e-05 -7.22973 -0.00105653 3.53732 2650 
615 1 -0.0301301 -0.00011599 -0.0619447 0.000116 -7.23149 -0.00106093 3.51955 2650 
4150 1 -0.0312102 -0.0204134 -0.0614084 0.000116 -4.30108 -0.371522 2.18181 2650 
3974 1 -0.0310654 -0.0155648 -0.061138 0.000423 -6.16971 -0.102859 3.17247 2650 
427 1 -0.0330155 -0.0247692 -0.0604558 0.000116 -6.01526 0.0133077 3.30544 2650 
1616 1 -0.0334118 -0.0191049 -0.0602375 0.000116 -3.88504 -0.550591 2.14594 2650 
453 1 -0.0329343 -0.018044 -0.0601504 0.000423 -3.71841 -0.388335 2.09029 2650 
295 1 -0.0329731 -0.0132169 -0.0604731 0.000116 -3.77362 -0.313775 2.0397 2650 
4007 1 -0.033471 -0.00929583 -0.060203 0.000116 -2.87878 -0.295407 1.5302 2650 
2376 1 -0.0342612 -0.000116147 -0.0597593 0.000116 -4.34648 0.000490549 2.49345 2650 
2947 1 -0.0340574 -0.00011601 -0.0598754 0.000116 -4.35347 -8.01932e-05 2.47916 2650 
367 1 -0.0349022 -0.022942 -0.0590305 0.000423 -6.29207 0.100465 3.70732 2650 
3583 1 -0.0358696 -0.0196782 -0.0588078 0.000116 -4.33895 -0.651696 2.63843 2650 
4377 1 -0.0370037 -0.039599 -0.0581833 4.2e-05 -5.62043 0.0473685 3.54241 2650 
4251 1 -0.0370898 -0.0209955 -0.0580459 0.000116 -5.39244 0.178941 3.45589 2650 
2130 1 -0.0365041 -0.0085265 -0.0580411 0.000423 -2.73234 -0.20215 1.56479 2650 
1968 1 -0.0380296 -0.0171513 -0.0574313 0.000116 -4.68118 0.907237 2.98175 2650 
843 1 -0.037971 -0.0124383 -0.0574371 0.000116 -4.58493 0.62986 3.05979 2650 
977 1 -0.0382212 -0.00193115 -0.0573029 0.000116 -4.5472 -0.044295 2.94786 2650 
2690 1 -0.0395635 -0.0309361 -0.0560144 0.000423 -5.38061 -0.170886 3.77545 2650 
2042 1 -0.0395923 -0.0204236 -0.0563168 0.000116 -3.32635 0.916176 5.82518 2650 
811 1 -0.0403785 -0.0244801 -0.0554301 0.000423 -5.55583 0.158329 4.05563 2650 
3168 1 -0.0418071 -0.0207942 -0.0547462 0.000116 -4.3155 -0.315151 3.30515 2650 
1387 1 -0.0412601 -0.0160528 -0.0551596 0.000116 -4.95742 0.27546 3.70798 2650 
138 1 -0.0416029 -0.0155726 -0.0545166 0.000423 -4.01979 -0.455647 3.10659 2650 
2982 1 -0.0422375 -0.0113895 -0.0540265 0.000423 -4.13736 -0.326148 3.21853 2650 
734 1 -0.0437179 -0.0243119 -0.053233 0.000116 -4.33122 0.452467 3.53922 2650 
3227 1 -0.0437156 -0.0207123 -0.0528391 0.000423 -5.48129 0.0419557 4.53544 2650 
2314 1 -0.0441544 -0.0433855 -0.0521678 0.000656 -5.92132 0.184781 4.96968 2650 
2457 1 -0.044662 -0.0280797 -0.0520413 0.000423 -5.58954 -0.0259088 4.77726 2650 
3252 1 -0.044608 -0.0272431 -0.0524894 0.000116 -5.38952 0.183221 4.58278 2650 
3479 1 -0.0445992 -0.0186087 -0.0524964 0.000116 -5.16751 0.0116802 4.39196 2650 
1183 1 -0.0454273 -0.00560653 -0.0517816 0.000116 -4.23958 -0.0473168 3.7129 2650 
4097 1 -0.0463876 -0.0101258 -0.0505094 0.000423 -2.21896 -0.514612 2.03981 2650 
3356 1 -0.0471588 -0.0193531 -0.0502099 0.000116 -3.70748 -0.333826 3.49393 2650 
2685 1 -0.0475422 -0.0270615 -0.0494242 0.000423 -5.06346 0.0731408 4.85532 2650 
689 1 -0.0488015 -0.0371869 -0.0481802 0.000423 -5.34876 -0.0138033 5.40579 2650 
4101 1 -0.0481421 -0.0278274 -0.0488403 0.000423 -5.24677 0.398806 5.15887 2650 
935 1 -0.0487547 -0.0221311 -0.0482273 0.000423 -4.99911 0.00524272 5.05134 2650 
2100 1 -0.0478204 -0.0136411 -0.0488305 0.000656 -3.58189 -0.172016 3.57223 2650 
1520 1 -0.0499817 -0.036324 -0.0473999 0.000116 -5.14873 -0.111044 5.43223 2650 
807 1 -0.0492621 -0.00356772 -0.047709 0.000423 -4.15713 0.28553 4.25916 2650 
2361 1 -0.0498419 -0.0239237 -0.0471024 0.000423 -4.81776 -0.093734 5.09046 2650 
4048 1 -0.050598 -0.00827813 -0.0468521 4.2e-05 -4.31519 1.20993 4.6659 2650 
2848 1 -0.0504468 -0.00769253 -0.0470136 4.2e-05 -5.18961 0.0675307 5.57477 2650 
2900 1 -0.0508357 -0.0105589 -0.0460297 0.000423 -4.01749 0.271744 4.46619 2650 
2846 1 -0.051039 -0.00161478 -0.0463695 4.2e-05 -3.52011 -0.254867 3.84038 2650 
762 1 -0.0510495 -0.000618068 -0.0463582 4.2e-05 -5.22975 -0.205114 5.7566 2650 
1135 1 -0.0516323 -0.0445499 -0.0451331 0.000423 -4.61641 -0.0311653 5.3 2650 
4036 1 -0.0516455 -0.0240131 -0.04558 0.000116 -5.09221 -0.338211 5.76547 2650 
336 1 -0.0516083 -0.0352401 -0.0448042 0.000656 -4.92325 -0.0793743 5.64294 2650 
1794 1 -0.0524542 -0.0337794 -0.0441769 0.000423 -4.83863 0.138991 5.72081 2650 
4106 1 -0.0522148 -0.0248021 -0.0444571 0.000423 -4.63455 -0.0974465 5.41277 2650 
3613 1 -0.0525822 -0.0217701 -0.0446122 4.2e-05 -3.66284 -0.418641 4.30141 2650 
2607 1 -0.0522493 -0.00925713 -0.0448841 0.000116 -3.03099 -0.0473702 3.47481 2650 
1829 1 -0.0525421 -0.00944634 -0.0445373 0.000116 -2.23495 -0.302567 2.59567 2650 
2038 1 -0.0524721 -0.00165968 -0.044627 0.000116 -3.47612 -0.183225 4.03922 2650 
3375 1 -0.0531492 -0.0296766 -0.0438102 0.000116 -3.66868 -0.759355 4.37523 2650 
3878 1 -0.0525913 -0.0234165 -0.0440124 0.000423 -4.59117 -0.129025 5.47709 2650 
3390 1 -0.0533443 -0.00543907 -0.0435733 0.000116 -3.80922 -0.24281 4.6532 2650 
1161 1 -0.0529007 -0.00277111 -0.0441183 0.000116 -2.21714 0.105456 2.61872 2650 
636 1 -0.0555345 -0.00595085 -0.0407226 0.000116 -4.7012 0.670525 6.40993 2650 
555 1 -0.0557364 -0.0389006 -0.0395488 0.000656 -4.50041 0.0284983 6.35507 2650 
786 1 -0.0557604 -0.0216881 -0.0399091 0.000423 -4.01035 0.150607 5.51265 2650 
2349 1 -0.0563761 -0.020135 -0.0390529 0.000423 -3.89834 0.101449 5.89288 2650 
3372 1 -0.0559025 -0.0203929 -0.0390085 0.000116 -5.1554 0.43442 9.1511 2650 
2234 1 -0.0562831 -0.0176186 -0.0391811 0.000423 -3.49957 -0.232914 5.01986 2650 
209 1 -0.0569027 -0.0180553 -0.0388195 0.000116 -3.48962 -0.0606737 5.13984 2650 
2060 1 -0.0573857 -0.0243795 -0.0381034 0.000116 -3.88322 0.314977 5.84209 2650 
2664 1 -0.0571099 -0.0226461 -0.0379648 0.000423 -3.63648 -0.387658 5.49235 2650 
1587 1 -0.0568574 -0.0184827 -0.0383426 0.000423 -3.43332 -0.315834 5.08096 2650 
1683 1 -0.0571021 -0.0145531 -0.037976 0.000423 -3.3133 0.302909 4.98272 2650 
1946 1 -0.0572682 -0.00897568 -0.0382801 0.000116 -1.87804 -0.167866 2.82116 2650 
578 1 -0.0575354 -0.0252806 -0.0373175 0.000423 -3.96076 0.11679 6.08478 2650 
1634 1 -0.0580697 -0.0239739 -0.0370529 0.000116 -3.3602 -0.419803 5.25121 2650 
269 1 -0.0574065 -0.0241286 -0.0375157 0.000423 -3.52572 -0.782712 5.454 2650 
3874 1 -0.0576488 -0.0163744 -0.0371415 0.000423 -3.32208 0.120084 5.16492 2650 
1408 1 -0.0579765 -0.00142841 -0.0371981 0.000116 -3.4418 -0.242895 5.35004 2650 
3926 1 -0.0584708 -0.0287461 -0.0364157 0.000116 -3.7316 0.664682 5.99066 2650 
1296 1 -0.058468 -0.0237928 -0.0364208 0.000116 -3.81204 0.86932 6.11743 2650 
378 1 -0.0584647 -0.0266517 -0.0358456 0.000423 -3.67842 -0.196881 5.98676 2650 
1628 1 -0.0586634 -0.0245 -0.0361055 0.000116 -3.32265 -0.47128 5.4122 2650 
3601 1 -0.0598285 -0.0281006 -0.034141 0.000116 -3.51821 -0.0456415 6.1477 2650 
4229 1 -0.0600196 -0.0191134 -0.0338027 0.000116 -2.96269 0.0128468 5.25315 2650 
3708 1 -0.0601944 -0.0170781 -0.0334903 0.000116 -2.71761 -0.214594 4.88633 2650 
2192 1 -0.0604227 -4.22689e-05 -0.0332309 4.2e-05 -1.62865 -0.000949843 3.03572 2650 
3850 1 -0.0603789 -0.0355539 -0.032517 0.000423 -3.49068 0.0195284 6.51416 2650 
1555 1 -0.0607223 -0.0362202 -0.0318709 0.000423 -3.41795 0.0534493 6.53786 2650 
3729 1 -0.0605578 -0.0264981 -0.0316848 0.000656 -3.47629 -0.011699 6.60028 2650 
2000 1 -0.0605967 -0.0216782 -0.0321099 0.000423 -3.16861 -0.422444 5.99052 2650 
1563 1 -0.0612325 -0.0299997 -0.0308815 0.000423 -3.32471 -0.0886769 6.55952 2650 
2998 1 -0.061027 -0.0241231 -0.0312837 0.000423 -3.22396 0.044637 6.27542 2650 
1818 1 -0.061397 -0.0232221 -0.031231 0.000116 -3.18048 0.250096 6.24993 2650 
410 1 -0.0616589 -0.00965822 -0.0307124 0.000116 -2.47437 -0.500403 4.94434 2650 
2939 1 -0.032576 -0.00406147 -0.0314391 0.000116 -4.88071 -0.100317 -4.70492 2650 
429 1 -0.0619897 -0.00934534 -0.030039 0.000116 -1.92558 -0.145801 4.00967 2650 
2996 1 -0.0615168 -0.0115575 -0.030311 0.000423 -2.58203 0.0744303 5.24996 2650 
3692 1 -0.0617055 -0.00931273 -0.0306192 0.000116 -3.80768 0.759949 7.67041 2650 
715 1 -0.0618477 -0.00825727 -0.0296293 0.000423 -1.65589 -0.130738 3.40194 2650 
3058 1 -0.0621531 -0.00388858 -0.0296986 0.000116 -1.40851 -0.00957388 2.89776 2650 
3174 1 -0.0627509 -0.0298258 -0.0285946 4.2e-05 -2.75506 0.583474 6.05546 2650 
1136 1 -0.0623434 -0.0240756 -0.02857 0.000423 -3.06634 -0.0329567 6.6665 2650 
2053 1 -0.0630211 -0.0281086 -0.0278107 0.000116 -2.57952 0.209093 5.89861 2650 
479 1 -0.062789 -0.023856 -0.0275766 0.000423 -2.99427 0.14225 6.78835 2650 
4220 1 -0.063302 -0.00384228 -0.0271627 0.000116 -1.886 0.566196 4.48109 2650 
618 1 -0.0636061 -0.0300354 -0.0264454 0.000116 -2.90552 -0.225222 6.96476 2650 
1363 1 -0.0633171 -0.026059 -0.0263426 0.000423 -2.78521 0.00394506 6.65362 2650 
486 1 -0.0633927 -0.0225693 -0.026159 0.000423 -2.89565 0.207869 7.01553 2650 
2232 1 -0.0637361 -0.0279253 -0.0253113 0.000423 -2.76173 0.0185353 6.93829 2650 
992 1 -0.0637882 -0.035619 -0.0245445 0.000656 -2.63438 -0.111628 6.90935 2650 
4124 1 -0.0641448 -0.0342137 -0.0251103 0.000116 -2.53731 0.329745 6.44535 2650 
2343 1 -0.063924 -0.0259069 -0.0248332 0.000423 -2.55232 -0.0381259 6.5966 2650 
3084 1 -0.0635608 -0.023054 -0.0251229 0.000656 -2.7846 -0.0196926 7.02019 2650 
2112 1 -0.0640706 -0.0223457 -0.0244524 0.000423 -2.65309 -0.1716 6.88642 2650 
3531 1 -0.0642838 -0.0279203 -0.0238865 0.000423 -2.5067 -0.05355 6.7289 2650 
3642 1 -0.0641846 -0.0263663 -0.0241529 0.000423 -2.49122 -0.00990624 6.64503 2650 
2166 1 -0.0647352 -0.0198535 -0.0235445 0.000116 -2.20171 -0.109726 6.04836 2650 
228 1 -0.0646413 -0.0242646 -0.022196 0.000656 -2.41699 0.00571997 6.93873 2650 
29 1 -0.0648072 -0.0176063 -0.0224259 0.000423 -2.25626 0.102527 6.56205 2650 
849 1 -0.0652177 -0.000579814 -0.0221724 0.000116 -1.55812 0.019639 4.65465 2650 
3319 1 -0.0650759 -0.0375972 -0.0216357 0.000423 -2.43451 -0.247905 7.38939 2650 
14 1 -0.0659149 -0.0279213 -0.0189246 0.000423 -1.86336 0.029388 6.55312 2650 
1107 1 -0.0659993 -0.0337766 -0.0177577 0.000656 -2.00491 -0.0331642 7.40987 2650 
3024 1 -0.066609 -0.0210166 -0.0175575 0.000116 -2.35059 -0.239534 8.91401 2650 
483 1 -0.0665158 -0.0376156 -0.0166912 0.000423 -1.92345 -0.0342234 7.59822 2650 
2172 1 -0.000476169 -0.00110132 -0.0166762 0.000116 0.0682862 0.00746542 -0.00852403 2650 
606 1 -0.000183 0.00173336 -0.016592 0.000116 0 -0.011753 0 2650 
2520 1 -0.00032701 0.0048836 -0.0168635 4.2e-05 0.00318265 0.000380138 0.00682554 2650 
2497 1 -5.422e-05 0.0257745 -0.0167179 0.000116 0.293564 0.092722 -0.0110309 2650 
2013 1 -0.00294184 0.00301641 -0.0159262 0.000423 -0.00154235 0.00221798 0.00156406 2650 
2301 1 -0.0042953 0.00365875 -0.0162286 4.2e-05 -0.00116259 -0.0070103 0.00459775 2650 
1679 1 -0.00409541 0.00433571 -0.0158679 0.000423 -0.00453172 0.0157125 0.00260684 2650 
2283 1 -0.00352575 0.00413519 -0.0164092 0.000116 -0.00010552 0.00956354 0.000789399 2650 
4227 1 -0.000499442 0.00442121 -0.016059 0.000116 0.00143204 -0.0228975 -0.0290312 2650 
1611 1 -0.00374997 0.0049006 -0.0159969 0.000116 0.0513704 -0.0152435 0.0155029 2650 
978 1 -0.00286467 0.00639493 -0.0163633 0.000116 0.0180122 -0.00353228 -0.00159853 2650 
3934 1 -0.001977 0.00649536 -0.016218 0.000116 0 -0.011753 0 2650 
3177 1 -7.37968e-05 0.00862364 -0.0161339 4.2e-05 0.00917698 -0.00185525 -0.00666376 2650 
1483 1 -0.000445045 0.0100372 -0.0162682 0.000423 -0.00134867 0.0112238 -0.0085204 2650 
3007 1 -0.00260607 0.0109878 -0.0159237 0.000423 -0.00754521 0.0118776 -0.00214285 2650 
70 1 -0.00504256 0.0118107 -0.0158144 0.000116 0.0560864 0.0328811 0.00597028 2650 
371 1 -0.000462887 0.0112765 -0.0164523 0.000423 0.00531915 0.0198137 0.0114896 2650 
188 1 -0.00250433 0.0125314 -0.0163139 0.000116 -0.0148612 0.0228045 0.00418427 2650 
2182 1 -0.00142035 0.0122181 -0.0158175 0.000116 -0.00770269 0.0448602 -0.0445042 2650 
2713 1 -0.000719433 0.0143054 -0.0161391 0.000116 0.00037122 0.035974 0.00535071 2650 
4234 1 -0.00503232 0.0317418 -0.0159411 0.000116 0.00512064 0.0508026 0.0366661 2650 
66 1 -0.00417361 0.0342091 -0.0161165 0.000116 -0.217432 -0.0137213 0.0406838 2650 
2021 1 -0.000336888 0.0511497 -0.0164329 0.000423 0.167293 -0.0932069 -0.0108047 2650 
1655 1 -0.066678 -0.0408311 -0.0150125 0.000656 -1.76184 -0.0616877 7.8305 2650 
3514 1 -0.0666924 -0.0230532 -0.0149354 0.000656 -1.69336 -0.162188 7.61814 2650 
2822 1 -0.0671112 -0.00268173 -0.0155271 0.000116 -1.6907 -0.156799 7.24921 2650 
1763 1 -0.00375735 -0.00242663 -0.0150306 0.000656 -0.0890582 0.0217677 -0.0881811 2650 
30 1 -0.00164332 -0.00139304 -0.0157514 0.000423 -0.0139928 -0.0214008 0.00726417 2650 
3599 1 -0.00139799 -0.00141103 -0.0152636 0.000116 0.0260231 -0.00977207 -0.00117121 2650 
2399 1 -0.002418 0.00194736 -0.015541 0.000116 0 -0.011753 0 2650 
3637 1 -0.005119 0.00370256 -0.0155821 0.000423 -0.00704251 0.0124689 0.006236 2650 
2344 1 -0.000163317 0.00471398 -0.0150635 0.000423 0.0113166 5.02216e-06 -0.0390029 2650 
2438 1 -0.00602679 0.00725932 -0.0150984 0.000423 -0.00468347 -0.000292455 -0.00123863 2650 
3830 1 -0.006879 0.00804736 -0.015411 4.2e-05 0 -0.011753 0 2650 
938 1 -0.00147652 0.00990718 -0.0157543 0.000116 -0.00119823 0.000558801 -0.00633771 2650 
2781 1 -0.00611161 0.010828 -0.0151518 0.000423 -0.00287998 0.011096 -0.0317373 2650 
2969 1 -0.00235127 0.0103384 -0.015057 0.000656 -0.00667616 0.014076 0.00443217 2650 
2793 1 -0.00107502 0.0119235 -0.0152155 0.000423 0.000157206 0.0547174 -0.00166293 2650 
3644 1 -0.00116766 0.0130457 -0.0153207 0.000423 -0.000399523 0.00418678 0.0157329 2650 
2924 1 -0.0069231 0.0153062 -0.0151647 0.000116 -0.0500795 0.0331408 0.0243033 2650 
2466 1 -0.00562945 0.021267 -0.0152309 0.000423 0.0618857 0.0331724 -0.00268308 2650 
2585 1 -0.000862171 0.0241941 -0.0152948 0.000116 -0.0221426 0.0759057 0.0070692 2650 
2863 1 -0.00322456 0.0518742 -0.015389 0.000656 0.0828395 0.112062 0.0238951 2650 
3543 1 -0.0670019 -0.0219293 -0.0146093 0.000423 -1.66676 -0.0946526 7.582 2650 
1068 1 -0.0672674 -0.00940729 -0.0148362 0.000116 -1.39913 0.157957 6.29264 2650 
4244 1 -0.00138606 -0.00273602 -0.014725 0.000116 -0.0436806 -0.00994679 0.0125723 2650 
1053 1 -0.007469 -0.00189464 -0.014946 0.000116 0 -0.011753 0 2650 
736 1 -0.00725735 -0.000999863 -0.0148157 0.000116 -0.0307431 -0.0170391 0.0144389 2650 
509 1 -0.00762594 -0.000478498 -0.0146912 0.000116 -0.00480979 -0.0076817 0.0108723 2650 
3239 1 -0.00648479 0.00105592 -0.0142136 0.000116 -0.0248133 -0.00752354 0.0120924 2650 
857 1 -0.00472174 0.00252962 -0.0148777 0.000116 -0.0623021 0.0193526 0.00200378 2650 
2474 1 -0.00100586 0.00254562 -0.0144765 0.000423 0.0307748 -0.0136667 -0.043701 2650 
889 1 -0.00229554 0.00400294 -0.0144174 0.000656 0.0239239 0.0130736 -0.0545072 2650 
3365 1 -0.0022288 0.00469451 -0.0149071 0.000116 0.0120999 0.0333262 -0.0498495 2650 
4300 1 -0.000290569 0.00403558 -0.0144203 0.000423 0.0101839 0.00179298 -0.0226263 2650 
1192 1 -0.00713906 0.00577963 -0.0148272 0.000116 -0.0160738 0.0171838 -0.0228619 2650 
581 1 -0.00561919 0.00805844 -0.0145287 0.000423 0.000441693 0.00100922 0.00165067 2650 
233 1 -0.00380968 0.00898141 -0.0148249 0.000423 0.00841442 -0.00267664 0.00454736 2650 
2726 1 -0.000222762 0.00868856 -0.0143587 0.000116 -0.00741369 0.00988612 -0.041436 2650 
289 1 -0.00318499 0.00973664 -0.0146909 0.000116 -0.00850769 0.000708308 0.0302001 2650 
86 1 -0.00415071 0.0103456 -0.01497 0.000116 -0.0196067 0.0126222 0.000798653 2650 
3500 1 -0.00328721 0.0107391 -0.0148037 4.2e-05 -0.0484689 0.00233787 0.0298831 2650 
3150 1 -0.00140373 0.0104883 -0.0147009 0.000116 -0.0182263 -0.0087302 -0.0269448 2650 
1228 1 -0.00183963 0.0122531 -0.0149239 0.000423 -0.0165199 0.0339339 0.00467854 2650 
1839 1 -0.00396434 0.015364 -0.0144923 0.000116 -0.0676852 0.0211351 0.0188737 2650 
93 1 -0.00847158 0.018114 -0.0145362 0.000116 0.0573325 0.04651 -0.0562898 2650 
1717 1 -0.00336121 0.027719 -0.0145107 0.000116 -0.014717 0.0706098 -0.0348682 2650 
1195 1 -0.00555807 0.0315381 -0.0143383 0.000116 0.0557766 0.0782116 -0.0138054 2650 
4010 1 -0.00761343 0.0424308 -0.0148541 0.000116 0.0373387 0.0604042 0.0259593 2650 
3588 1 -0.00704043 0.0422405 -0.0146327 0.000116 0.181107 0.0152304 0.0217687 2650 
2663 1 -0.0672599 -0.033418 -0.0133013 0.000423 -1.31321 -0.14909 7.04191 2650 
2666 1 -0.00426967 -0.00283577 -0.0140759 0.000423 0.0429038 -0.00888448 0.00629481 2650 
3576 1 -0.00311531 -0.00143963 -0.0140851 0.000116 0.0561059 0.00120064 -0.0311085 2650 
1991 1 -0.00758043 0.000270896 -0.0141839 0.000656 -0.019376 -0.00203791 0.00870126 2650 
2609 1 -0.00857121 0.00125454 -0.013469 0.000116 0.0165148 -0.0225508 -0.0126409 2650 
2922 1 -0.00770839 0.00135577 -0.0136131 0.000116 -0.00925852 -0.000802711 0.00675368 2650 
220 1 -0.00339315 0.00339411 -0.0140262 4.2e-05 0.00197382 0.00663681 0.00671825 2650 
2913 1 -0.00939173 0.00403123 -0.0138355 0.000116 -0.0031719 -0.0208365 0.00893463 2650 
3787 1 -0.00673707 0.00407059 -0.0136851 0.000116 -0.0024271 -0.00223267 -0.0195234 2650 
1388 1 -0.00571016 0.00547252 -0.0139005 0.000116 -0.039288 0.0021603 0.0169103 2650 
1288 1 -0.002467 0.00567636 -0.014044 0.000116 0 -0.011753 0 2650 
3515 1 -0.00832858 0.00672873 -0.0138914 0.000656 -0.00454215 -0.00749919 0.00616721 2650 
2918 1 -0.00670537 0.00669043 -0.0134554 0.000116 0.0149777 0.0131491 0.0124233 2650 
1618 1 -0.00974985 0.00753114 -0.013676 0.000116 0.0059414 0.00192455 -0.00369393 2650 
1250 1 -0.00887284 0.00763849 -0.0134258 0.000423 -0.0126021 -0.0099031 0.00355829 2650 
3364 1 -0.00670303 0.00779703 -0.0136857 0.000116 -0.00179506 0.0163753 -0.0232219 2650 
1769 1 -0.00812126 0.00823608 -0.0139346 0.000656 -0.0137362 -0.00803998 0.00121316 2650 
4190 1 -0.00892256 0.00909866 -0.0138514 0.000423 -0.00788233 0.00684233 0.00501954 2650 
2092 1 -0.00671166 0.00922308 -0.013899 0.000656 -0.00167296 0.00263094 0.0238503 2650 
1827 1 -0.00493943 0.00895802 -0.0140718 0.000116 0.0445821 -0.0304485 -0.00868089 2650 
2313 1 -0.00341575 0.00873175 -0.0138472 0.000656 0.0129983 0.0241547 0.0127298 2650 
1409 1 -0.00044 0.00945636 -0.013868 0.000116 0 -0.011753 0 2650 
1476 1 -0.00741327 0.00995062 -0.013441 0.000423 -0.00473027 0.00118609 -0.000138689 2650 
2453 1 -0.00609614 0.011074 -0.0135357 0.000423 0.00287214 0.0261989 -0.0126472 2650 
1802 1 -0.00347842 0.0124105 -0.0135278 0.000423 0.00500259 -0.000364755 -0.0111755 2650 
3163 1 -0.00833555 0.0131896 -0.0140749 0.000116 0.00944139 0.0175584 0.0253463 2650 
3838 1 -0.00544301 0.0128323 -0.0139567 0.000656 0.0059045 0.0308137 -0.0288407 2650 
3825 1 -0.00932177 0.0143149 -0.0135932 0.000116 -0.069686 0.0193601 -0.0251245 2650 
949 1 -0.00917127 0.0147533 -0.0140363 0.000116 -0.0490041 0.045275 -0.0453717 2650 
4231 1 -0.00168376 0.0184302 -0.0135412 0.000116 -0.0134934 0.0153003 0.0304581 2650 
3039 1 -0.0677141 -0.00167711 -0.0126413 0.000116 -1.10945 0.0723636 5.97679 2650 
2332 1 -0.00568695 -0.000799043 -0.0133565 0.000423 -0.0114447 -0.00779769 0.00753018 2650 
3011 1 -0.00124564 -0.00112539 -0.013092 0.000423 0.0180353 -0.0317081 -0.0392676 2650 
3191 1 -0.00946565 -0.000648056 -0.0129548 0.000656 -0.0183475 -0.00795438 -0.00635009 2650 
2525 1 -0.004063 -9.66446e-05 -0.013231 4.2e-05 0 -0.011753 0 2650 
4165 1 -0.00532058 0.000162648 -0.0126526 0.000656 -0.00295906 -0.0330191 0.0101422 2650 
161 1 -0.000314621 1.11304e-05 -0.0133394 0.000423 0.0169113 0.00636159 -0.0425513 2650 
4126 1 -0.00794486 0.00115295 -0.0127754 0.000116 -0.0261531 0.0084042 0.00402279 2650 
3880 1 -0.0103965 0.00188257 -0.0127585 0.000423 -0.0020648 -0.00583391 0.00454369 2650 
2473 1 -0.00895089 0.00181659 -0.0133971 0.000423 0.0164368 -0.00639214 -0.0235738 2650 
2512 1 -0.00726224 0.0020246 -0.0133927 0.000116 0.018779 -0.0192413 0.00230208 2650 
3917 1 -0.003984 0.00220436 -0.012703 0.000116 0 -0.011753 0 2650 
676 1 -0.00467135 0.00231346 -0.0126648 0.000423 0.0030198 -0.00797062 0.0224423 2650 
3316 1 -0.0098278 0.00246199 -0.0131739 0.000423 -0.0194104 -0.0270423 0.00196759 2650 
2059 1 -0.003583 0.00241336 -0.012756 0.000116 0 -0.011753 0 2650 
150 1 -0.0095924 0.00377457 -0.0133708 0.000423 -0.0332403 0.0236354 0.0259176 2650 
1032 1 -0.0050372 0.00323706 -0.0130255 0.000423 0.0140776 0.00865188 0.010778 2650 
3446 1 -0.000663604 0.00381398 -0.0131677 0.000423 0.016221 -0.0142776 -0.00742368 2650 
3587 1 -0.0103932 0.00447662 -0.0127811 0.000116 -0.0579635 0.0255056 0.0285778 2650 
763 1 -0.00677367 0.0042296 -0.0131128 4.2e-05 -0.0107376 -0.0192397 -0.014763 2650 
1427 1 -0.002948 0.00474436 -0.013376 4.2e-05 0 -0.011753 0 2650 
3362 1 -0.00261825 0.00477507 -0.0128186 0.000116 0.000350619 -0.00253681 -0.00404217 2650 
2322 1 -0.00907972 0.00570659 -0.0133632 0.000656 -0.00299145 -0.013582 0.00409796 2650 
4179 1 -0.00811627 0.00597057 -0.0129541 0.000423 -0.0070231 -0.0226882 -0.00131956 2650 
445 1 -0.0101019 0.00703753 -0.0126546 0.000656 -0.00236227 -0.000765152 0.00548657 2650 
963 1 -0.00692957 0.00695759 -0.0134036 0.000116 0.00350227 -0.00324664 0.0156587 2650 
2912 1 -0.00538803 0.00660445 -0.0131017 0.000116 0.00196064 0.0151142 0.00117299 2650 
4257 1 -0.0081552 0.00754764 -0.0131755 0.000116 -0.00578911 -0.00907208 0.00958653 2650 
2222 1 -0.000712447 0.00776674 -0.0129476 0.000423 0.00109584 0.00172293 0.0219135 2650 
2483 1 -0.00647249 0.00812145 -0.0130168 0.000116 0.0222317 -0.00887276 -0.000700143 2650 
4368 1 -0.00107843 0.00863554 -0.0129567 0.000116 0.0213285 8.20602e-05 -0.0260591 2650 
1237 1 -0.00950847 0.00938365 -0.0132965 0.000423 -0.00626746 0.00986586 0.00606863 2650 
842 1 -0.00757381 0.00870056 -0.0131198 0.000116 0.0142557 0.0140049 -0.0234983 2650 
3847 1 -0.00939074 0.0105033 -0.0131917 0.000656 0.000663601 0.0153864 -0.00910714 2650 
1775 1 -0.00825999 0.0102699 -0.0131448 0.000423 -0.000575409 -0.0115316 -0.00160845 2650 
2798 1 -0.00675855 0.0115709 -0.0127801 0.000423 0.00307291 0.0287307 -0.0047091 2650 
1617 1 -0.000735059 0.0125657 -0.0132738 0.000116 0.00511482 0.0710113 0.047396 2650 
128 1 -0.000138362 0.0124151 -0.0132213 0.000423 -0.0151911 0.0337573 -0.0149348 2650 
3471 1 -0.00774239 0.0128374 -0.0132145 0.000116 0.00654915 0.0415659 -0.0136084 2650 
2191 1 -0.00140088 0.0130233 -0.0130351 4.2e-05 -0.0219515 0.010649 -0.0334451 2650 
3145 1 -0.00826896 0.0134734 -0.0133488 0.000116 -0.0186098 0.0309384 -0.020461 2650 
3686 1 -0.0109801 0.017503 -0.0127187 0.000116 0.0215061 0.0913964 -0.00906023 2650 
3395 1 -0.0106877 0.021696 -0.0131048 4.2e-05 -0.293978 -0.201617 0.218389 2650 
3051 1 -0.0094301 0.0246115 -0.0128652 0.000116 0.128093 -0.215655 -0.111448 2650 
148 1 -0.00979356 0.0268605 -0.0132595 0.000423 -0.126154 -0.159151 0.0929372 2650 
2643 1 -0.00944328 0.0336275 -0.0129208 0.000656 -0.0823633 0.0688822 0.0201377 2650 
3820 1 -0.000778568 0.0483529 -0.0130015 0.000116 0.00708078 0.241917 -0.0365799 2650 
3482 1 -0.0677809 -0.0265069 -0.012265 0.000116 -1.31902 0.317524 6.94907 2650 
3376 1 -0.0678685 -0.0224289 -0.0117777 0.000116 -1.23485 0.0130425 7.07742 2650 
3066 1 -0.0678938 -0.0127777 -0.0120678 4.2e-05 -1.23562 0.120033 6.93682 2650 
1422 1 -0.00398785 -0.00173568 -0.0122848 4.2e-05 -0.0036076 -0.017528 0.00216624 2650 
3477 1 -0.00442609 -0.00207305 -0.0121264 0.000116 0.0183398 -0.0587002 0.0125841 2650 
3249 1 -0.0112675 -0.000147578 -0.0121157 0.000116 -0.0378681 -0.0258717 -0.0093562 2650 
623 1 -0.00829483 -0.000502135 -0.0126032 0.000116 -0.0192086 -0.00896372 0.0230222 2650 
3389 1 -0.010415 0.000701355 -0.012026 0.000116 0 -0.011753 0 2650 
2619 1 -0.00643269 0.000354455 -0.0126301 0.000116 -0.0137973 -0.0204082 0.00531131 2650 
3956 1 -0.00957583 0.000939837 -0.0122914 0.000656 -0.011959 0.00314662 -0.000969155 2650 
3551 1 -0.00833375 0.000894238 -0.0122754 0.000423 -0.015336 0.00523015 0.00637389 2650 
4374 1 -0.00936107 0.0023123 -0.0119812 4.2e-05 -0.00342399 0.0134868 -0.018776 2650 
3826 1 -0.0103267 0.00251832 -0.0125725 0.000116 -0.0312359 -0.00760565 -0.00168919 2650 
1171 1 -0.00711057 0.00286514 -0.0125142 0.000116 0.0131753 -0.0110464 0.0150896 2650 