ITEM: TIMESTEP
5247828
ITEM: NUMBER OF ATOMS
4370
ITEM: BOX BOUNDS ff ff ff
-0.15 0.15
-0.15 0.06
-0.15 0.15
ITEM: ATOMS id type x y z radius vx vy vz density 
983 1 -0.0400183 -0.0622515 -0.0561587 4.2e-05 -8.91367 -0.0018517 6.35182 2650 
3308 1 -0.0574489 -0.045772 -0.0374506 0.000423 -2.37628 0.0839701 3.65432 2650 
3426 1 -0.0641879 -0.0458364 -0.0241378 0.000423 -1.42325 -1.13364 4.02908 2650 
3602 1 -0.0653251 -0.0468275 -0.0218541 0.000116 -1.21958 0.184431 3.59775 2650 
418 1 -0.064538 -0.0587253 0.0240752 0.000116 2.70881 -0.281571 7.38289 2650 
3038 1 -0.0574242 -0.0607472 0.0380456 0.000116 2.81494 -0.100384 4.27483 2650 
4316 1 -0.0515346 -0.0498314 0.0452105 0.000423 3.19429 -0.0567899 3.78408 2650 
669 1 -0.0442598 -0.0557112 0.0520799 0.000656 3.79893 0.17071 3.24339 2650 
3331 1 -0.0223797 -0.0608225 0.0648226 0.000423 3.95994 0.146421 1.38057 2650 
634 1 -0.046639 -0.0623218 0.0717348 0.000116 4.08342 0.0810979 10.9316 2650 
3360 1 -0.00340718 -0.0378613 -0.0687995 0.000116 -8.21157 0.280861 0.403037 2650 
1071 1 -0.000129774 -0.0220118 -0.0688836 0.000116 -4.97148 -0.188711 0.0393501 2650 
1481 1 -0.00915584 -0.0379123 -0.0679637 0.000423 -4.83603 0.366886 0.658785 2650 
3319 1 -0.0044135 -0.0311763 -0.0684365 0.000423 -5.19184 0.120033 0.329233 2650 
38 1 -0.00707291 -0.0295274 -0.0682125 0.000423 -5.30451 0.150242 0.525352 2650 
618 1 -0.0104224 -0.0275792 -0.0680908 0.000116 -4.97955 -0.257327 0.769387 2650 
2167 1 -0.0109423 -0.0247844 -0.0680093 0.000116 -5.19542 -0.552311 0.855317 2650 
1081 1 -0.00539904 -0.0217394 -0.0686718 0.000116 -4.73611 0.207805 0.389181 2650 
3261 1 -0.0100036 -0.0200315 -0.0681538 0.000116 -4.35457 -0.282509 0.659511 2650 
3479 1 -0.00996548 -0.0189895 -0.0681589 0.000116 -6.27564 0.198193 0.918447 2650 
2928 1 -0.0078579 -0.0183287 -0.0684342 0.000116 -5.57678 0.246538 0.65119 2650 
427 1 -0.00550297 -0.01789 -0.0686637 0.000116 -5.65086 0.22238 0.452421 2650 
367 1 -0.00118899 -0.0169593 -0.0685677 0.000423 -3.47335 -0.408605 0.080857 2650 
3198 1 -0.00578888 -0.0123278 -0.068333 0.000423 -5.03524 -0.110404 0.43364 2650 
420 1 -0.0111988 -0.0104152 -0.0679673 0.000116 -3.38306 -0.224704 0.574144 2650 
2052 1 -0.00979322 -0.0106296 -0.0681841 0.000116 -3.16529 -0.293412 0.42023 2650 
2353 1 -0.000535366 -0.0015378 -0.0685755 0.000423 -4.89704 -0.14014 0.0118344 2650 
2685 1 -0.0138509 -0.0307422 -0.0671391 0.000423 -4.92232 0.517689 0.986764 2650 
1905 1 -0.00985081 -0.0257111 -0.0678669 0.000423 -5.09753 0.102645 0.722143 2650 
2232 1 -0.0137303 -0.0234398 -0.0671849 0.000423 -5.16811 0.0564723 0.980666 2650 
82 1 -0.0127898 -0.0219862 -0.0676825 0.000116 -4.16988 -0.293063 0.681234 2650 
3054 1 -0.00470474 -0.0210155 -0.0672041 0.000116 -5.93017 -0.170486 -0.0198936 2650 
1461 1 -0.0125747 -0.018594 -0.0674127 0.000423 -5.44277 0.0522676 0.970017 2650 
432 1 -0.0124656 -0.0166516 -0.0678211 4.2e-05 -4.29486 0.130903 0.716089 2650 
3812 1 -0.0140012 -0.016219 -0.0674295 0.000116 -5.08905 -0.204363 0.99612 2650 
3242 1 -0.0149423 -0.0153308 -0.0672174 0.000116 -4.64247 -0.464553 1.05062 2650 
1356 1 -0.0110592 -0.0118885 -0.0676804 0.000423 -3.83365 -0.235726 0.636687 2650 
1314 1 -0.0137684 -0.00631789 -0.0675441 4.2e-05 -5.41858 0.333775 1.04654 2650 
397 1 -0.0128946 -0.00584343 -0.0676602 0.000116 -4.82638 -0.100945 0.875391 2650 
814 1 -0.011831 -0.00045319 -0.0675476 0.000423 -4.26121 -0.0439814 0.765505 2650 
2557 1 -0.0166778 -0.0354236 -0.0665145 0.000423 -5.32045 0.124266 1.27749 2650 
3015 1 -0.0156935 -0.0213612 -0.066758 0.000423 -5.19271 0.358556 1.21262 2650 
1914 1 -0.0164468 -0.0207749 -0.0665764 0.000423 -5.28888 0.308189 1.29641 2650 
2103 1 -0.0160271 -0.0141473 -0.066664 0.000423 -3.64011 -0.0723053 1.11307 2650 
400 1 -0.0184821 -0.0117273 -0.0663544 0.000116 -3.52178 -0.349095 1.08743 2650 
91 1 -0.0177417 -0.00757314 -0.0665509 0.000116 -3.43735 0.124802 0.891118 2650 
1535 1 -0.0194691 -4.20428e-05 -0.0661522 4.2e-05 -3.59689 -0.00382815 1.07265 2650 
2823 1 -0.0193802 -0.000320891 -0.0661015 0.000116 -3.48517 0.00282312 1.01663 2650 
3502 1 -0.0116644 -0.00426259 -0.0648362 4.2e-05 -3.02028 -0.0947442 0.0815695 2650 
35 1 -0.0230201 -0.0406624 -0.0645988 0.000423 -3.86232 -0.310709 1.36366 2650 
3372 1 -0.0253314 -0.0248689 -0.064057 0.000116 -5.76148 0.804397 2.28689 2650 
319 1 -0.0256648 -0.0153354 -0.063924 0.000116 -3.25735 -0.0319068 1.29831 2650 
4331 1 -0.0240152 -0.00710163 -0.0645622 0.000116 -2.92731 -0.150366 1.11395 2650 
2820 1 -0.025197 -0.00468972 -0.0641101 0.000116 -4.56404 0.509873 1.82831 2650 
1510 1 -0.0264309 -0.0295056 -0.0636119 0.000116 -4.62323 -0.152705 1.90523 2650 
4210 1 -0.0276822 -0.0322076 -0.0627435 0.000423 -4.70081 0.290938 2.04828 2650 
2151 1 -0.0295602 -0.00620067 -0.0622194 0.000116 -3.87918 -0.0880932 1.8368 2650 
228 1 -0.0302571 -0.0195188 -0.0612837 0.000656 -5.81672 0.0214225 2.84334 2650 
4138 1 -0.032783 -0.0265541 -0.0605827 0.000116 -4.08286 -0.158533 2.19504 2650 
3387 1 -0.0303315 -0.0205453 -0.0600847 0.000116 -6.8646 -0.0444887 3.46465 2650 
1060 1 -0.030512 -0.020221 -0.0599642 0.000116 -6.85888 0.129373 3.64223 2650 
1136 1 -0.0334417 -0.022532 -0.0598714 0.000423 -5.82179 -0.141574 3.25098 2650 
835 1 -0.0351926 -0.00799258 -0.0592021 0.000116 -3.42387 -0.0191852 1.85202 2650 
646 1 -0.0351012 -0.00821826 -0.0592593 0.000116 -3.46201 -0.0481755 1.85556 2650 
3248 1 -0.034627 -0.00561059 -0.0595465 0.000116 -2.98289 -0.0558422 1.80017 2650 
358 1 -0.0351227 -0.0244967 -0.0589007 0.000423 -4.1155 -0.102436 2.46457 2650 
1669 1 -0.0351073 -0.0197044 -0.0589037 0.000423 -4.02993 -0.104056 2.39608 2650 
2198 1 -0.0363672 -0.0135981 -0.0585572 4.2e-05 -4.49176 1.44459 2.77843 2650 
2418 1 -0.0358797 -0.00103281 -0.0588811 4.2e-05 -4.12978 -0.198465 2.55929 2650 
3692 1 -0.0370675 -0.0126366 -0.0580309 0.000116 -4.23564 0.620239 2.77801 2650 
2546 1 -0.0376056 -0.0246524 -0.057348 0.000423 -3.80439 -0.113871 2.51775 2650 
838 1 -0.0386748 -0.00808774 -0.0570007 0.000116 -2.57119 -0.168484 2.1326 2650 
758 1 -0.0387222 -0.000643198 -0.0569702 0.000116 -3.94489 -0.157865 2.69933 2650 
1135 1 -0.0394825 -0.0373488 -0.0560716 0.000423 -4.36278 0.0608938 3.06686 2650 
538 1 -0.039778 -0.0150869 -0.0562351 0.000116 -3.61355 -0.180677 2.50952 2650 
3850 1 -0.0406148 -0.0360626 -0.0552577 0.000423 -4.34602 0.233336 3.17277 2650 
483 1 -0.0402912 -0.0338579 -0.0554942 0.000423 -4.55717 0.00449918 3.31135 2650 
2343 1 -0.0401097 -0.0217533 -0.0556247 0.000423 -4.26178 -0.378483 3.05601 2650 
578 1 -0.0397539 -0.0207923 -0.05588 0.000423 -4.3848 -0.0609429 3.1056 2650 
3227 1 -0.0402329 -0.0201729 -0.0555359 0.000423 -4.26061 0.0780942 3.086 2650 
2967 1 -0.0395788 -0.0191809 -0.055719 0.000656 -4.04791 -0.0732039 2.88033 2650 
3531 1 -0.0402086 -0.0169038 -0.0555538 0.000423 -4.76743 -0.140273 3.43628 2650 
3622 1 -0.0413564 -0.0352618 -0.0544135 0.000656 -4.43189 0.137671 3.39066 2650 
2664 1 -0.040968 -0.0277015 -0.0549966 0.000423 -4.14077 -0.142928 3.07199 2650 
3647 1 -0.0408952 -0.0209409 -0.0550499 0.000423 -4.21452 0.242866 3.13331 2650 
2875 1 -0.0140714 -0.00676465 -0.054075 0.000423 -2.10437 -0.310172 -8.11274 2650 
1343 1 -0.0424694 -0.00510821 -0.0538443 0.000423 -2.97525 -0.120705 2.39074 2650 
2039 1 -0.0430774 -0.00358618 -0.0537527 0.000116 -3.74446 -0.101409 2.97311 2650 
759 1 -0.0431866 -0.00304221 -0.0536646 0.000116 -3.57666 0.615065 2.85951 2650 
1555 1 -0.0434169 -0.0357042 -0.0530845 0.000423 -3.9456 0.29895 3.24217 2650 
1170 1 -0.0441613 -0.0224144 -0.0528652 0.000116 -3.77362 0.00874805 3.14935 2650 
3946 1 -0.0452126 -0.0310279 -0.0520685 4.2e-05 -5.05694 0.320769 4.37534 2650 
940 1 -0.0444206 -0.0214015 -0.052648 0.000116 -3.46031 -0.0420103 2.93862 2650 
2605 1 -0.0443792 -0.00532343 -0.0526833 0.000116 -3.08407 0.149478 2.62199 2650 
1537 1 -0.0443615 -6.47878e-05 -0.0527941 4.2e-05 -3.8889 1.7235 3.27626 2650 
1563 1 -0.0448862 -0.0373659 -0.0518466 0.000423 -3.95224 -0.249916 3.41682 2650 
1363 1 -0.0453077 -0.0172122 -0.0514796 0.000423 -2.68162 -0.432854 2.37784 2650 
3960 1 -0.0451668 -0.00900406 -0.0516038 0.000423 -2.2269 0.129904 1.95839 2650 
2858 1 -0.0453492 -0.0312929 -0.051135 0.000656 -4.55908 0.0702737 4.03039 2650 
1675 1 -0.0459666 -0.0240985 -0.0508909 0.000423 -4.14947 0.107627 3.71909 2650 
2738 1 -0.0464686 -0.0131389 -0.0509505 4.2e-05 -2.43286 -0.264203 2.19722 2650 
3619 1 -0.0464657 -0.00188216 -0.0509518 4.2e-05 -3.6221 -0.206749 3.3095 2650 
3041 1 -0.0473175 -0.0353464 -0.0500543 0.000116 -4.62055 -0.533169 4.37324 2650 
3276 1 -0.0469264 -0.0159945 -0.0504274 0.000116 -5.16611 0.134848 4.80607 2650 
1282 1 -0.046964 -0.012287 -0.050393 0.000116 -2.57581 -0.178803 2.40145 2650 
1877 1 -0.0469949 -0.027086 -0.0496215 0.000656 -4.1658 -0.0816518 3.89065 2650 
3642 1 -0.0473033 -0.0252938 -0.0496477 0.000423 -3.96789 0.201251 3.82605 2650 
633 1 -0.0478995 -0.0251118 -0.0495033 0.000116 -4.11392 0.263931 3.98651 2650 
2964 1 -0.0478641 -0.000221224 -0.0496408 4.2e-05 -3.30324 -0.0735973 3.19044 2650 
175 1 -0.0491353 -0.0281377 -0.048274 0.000116 -3.77453 0.605366 3.77206 2650 
636 1 -0.049185 -0.0195459 -0.0482261 0.000116 -2.63803 -0.0922393 2.71359 2650 
1104 1 -0.0492679 -0.0259866 -0.0473637 0.000656 -3.64265 0.0885276 3.86093 2650 
121 1 -0.0493581 -0.0221997 -0.0472746 0.000656 -3.71896 -0.0121319 3.87262 2650 
3391 1 -0.0505697 -0.0177822 -0.0468814 4.2e-05 -2.488 -0.00194272 2.6829 2650 
3586 1 -0.0502144 -0.014095 -0.0471543 0.000116 -2.79304 -0.0296586 2.94465 2650 
1841 1 -0.0512163 -0.0395087 -0.0460607 0.000116 -3.86665 -0.382012 4.31947 2650 
661 1 -0.0506658 -0.0368331 -0.0458566 0.000656 -3.75693 0.111803 4.15264 2650 
3583 1 -0.0508437 -0.0238256 -0.0464702 0.000116 -3.87812 -0.205567 4.31628 2650 
1175 1 -0.0518118 -0.0364008 -0.0453809 0.000116 -2.14925 -0.702146 2.48875 2650 
3366 1 -0.0530544 -0.0129734 -0.0439345 0.000116 -3.73322 0.280582 4.48528 2650 
1207 1 -0.053285 -0.00994455 -0.0437706 4.2e-05 -2.55917 0.514091 3.11952 2650 
486 1 -0.0533423 -0.0247047 -0.0430994 0.000423 -3.10263 -0.164073 3.8577 2650 
1878 1 -0.0541115 -0.0367061 -0.0417511 0.000656 -3.45026 0.0767415 4.48831 2650 
3252 1 -0.0551814 -0.0191407 -0.0412312 0.000116 -2.83972 0.20053 3.7891 2650 
410 1 -0.0555915 -0.0231595 -0.0406756 0.000116 -3.1293 -0.871098 4.22534 2650 
935 1 -0.0554042 -0.00893861 -0.040415 0.000423 -2.79806 -0.292334 3.81881 2650 
1870 1 -0.0562378 -0.0193559 -0.0399061 4.2e-05 -2.18085 -0.0958694 3.05826 2650 
632 1 -0.0566117 -0.0209425 -0.0392447 0.000116 -2.87862 0.127792 4.1234 2650 
2672 1 -0.0573226 -0.00574412 -0.037644 0.000423 -1.98282 -0.118079 3.04961 2650 
3337 1 -0.0591217 -0.00762573 -0.0347504 0.000423 -1.59965 -0.131453 2.81432 2650 
1325 1 -0.059679 -0.0169894 -0.0333084 0.000656 -2.37991 -0.297128 4.23998 2650 
892 1 -0.0599484 -0.0192486 -0.0328242 0.000656 -2.80658 0.0205061 5.09353 2650 
2165 1 -0.0605564 -0.00982645 -0.0328266 0.000116 -3.18931 0.268813 5.85807 2650 
4373 1 -0.0606297 -0.00475585 -0.0328483 4.2e-05 -1.5694 -0.0510893 2.92627 2650 
4372 1 -0.0615318 -0.025792 -0.031128 4.2e-05 -1.99187 -0.214226 3.98331 2650 
1475 1 -0.0610641 -0.0212654 -0.0312102 0.000423 -2.24585 0.0651604 4.38832 2650 
375 1 -0.0612715 -0.0112376 -0.0307994 0.000423 -2.17994 0.456253 4.10078 2650 
811 1 -0.0614814 -0.0221377 -0.0303804 0.000423 -2.23812 0.0481856 4.54276 2650 
3543 1 -0.0616536 -0.0210628 -0.0300297 0.000423 -2.18271 0.00132642 4.47006 2650 
518 1 -0.0619074 -0.00829224 -0.0302027 0.000116 -1.28987 -0.241387 3.01879 2650 
2576 1 -0.061984 -0.0302185 -0.0293184 0.000423 -2.30706 0.269604 4.69939 2650 
1560 1 -0.0619099 -0.0223328 -0.0294953 0.000423 -2.18688 -0.0105512 4.56542 2650 
2663 1 -0.0624147 -0.0226332 -0.028414 0.000423 -2.1668 -0.0253555 4.66337 2650 
4106 1 -0.0621837 -0.0217676 -0.0289136 0.000423 -2.10146 -0.022074 4.61165 2650 
2066 1 -0.0624216 -0.0209798 -0.0291293 0.000116 -2.0701 0.0554339 4.48607 2650 
2083 1 -0.0633039 -0.000465211 -0.027346 4.2e-05 -1.40709 -0.0855314 3.20895 2650 
2835 1 -0.063561 -0.0335814 -0.0264401 0.000116 -2.68556 0.377142 6.45108 2650 
1794 1 -0.0637442 -0.0379652 -0.0252736 0.000423 -1.75606 0.117299 4.53376 2650 
2386 1 -0.0641098 -0.0167828 -0.0251807 0.000116 -1.28295 -0.137408 3.42002 2650 
601 1 -0.0640438 -0.0121441 -0.0244867 0.000423 -2.00369 -0.0624507 5.40494 2650 
2057 1 -0.0643887 -0.00160065 -0.0244663 0.000116 -1.78601 0.33688 4.75965 2650 
3024 1 -0.0644859 -0.0253166 -0.0242124 0.000116 -1.18014 -0.522443 3.36581 2650 
4366 1 -0.0645162 -0.0196574 -0.0241341 0.000116 -1.76142 -0.297423 4.89688 2650 
786 1 -0.064198 -0.0174327 -0.0241123 0.000423 -1.27168 -0.481017 3.61799 2650 
3874 1 -0.0643912 -0.0184304 -0.0235903 0.000423 -1.74798 -0.302201 4.73176 2650 
259 1 -0.064745 -0.00770477 -0.0226049 0.000423 -1.57564 0.0717672 4.49352 2650 
333 1 -0.0648681 -0.00134617 -0.0215238 0.000656 -1.99978 -0.0728971 6.0898 2650 
406 1 -0.0658004 -0.0197984 -0.0203786 0.000116 -1.78989 0.222599 5.80409 2650 
1056 1 -0.0660989 -0.0415256 -0.0193892 0.000116 -1.31324 0.457913 4.50646 2650 
3196 1 -0.00856711 -0.00497143 -0.0190346 0.000423 -0.760075 -0.307011 -1.87441 2650 
2361 1 -0.0647991 -0.0168179 -0.0183881 0.000423 -1.02962 -0.835301 3.22291 2650 
1312 1 -0.0667156 -0.0125128 -0.0174427 4.2e-05 -0.971258 0.441704 3.71409 2650 
1945 1 -0.0664684 -0.0107827 -0.0180824 0.000116 -0.925365 -0.143325 3.3941 2650 
2846 1 -0.0668158 -0.0184994 -0.0170533 4.2e-05 -1.53826 0.439034 6.02066 2650 
1957 1 -0.0666965 -0.00696225 -0.0172224 0.000116 -0.907085 0.107751 3.48856 2650 
606 1 -0.000183 0.00338601 -0.016592 0.000116 0 -0.011753 0 2650 
188 1 -0.000394736 0.00818695 -0.0168263 0.000116 -0.0156058 0.0716121 0.00169132 2650 
2713 1 -0.000763 0.010357 -0.016767 0.000116 0 -0.011753 0 2650 
2818 1 -0.0669111 -0.0210107 -0.0163668 0.000116 -1.24141 0.0495837 5.04464 2650 
736 1 -0.003429 0.00131101 -0.016474 0.000116 0 -0.011753 0 2650 
150 1 -0.00257841 0.000944583 -0.0162326 0.000423 -0.00913371 0.00501626 0.00203877 2650 
676 1 -0.00233204 0.00194679 -0.0160925 0.000423 -0.0135783 -0.00452781 0.0177143 2650 
1679 1 -0.00363281 0.00274451 -0.0159395 0.000423 -0.000267589 -0.00703629 -0.00433961 2650 
2013 1 -0.00277624 0.00295104 -0.0161561 0.000423 0.00298908 -0.00809762 0.00112683 2650 
3589 1 -0.00405893 0.00432474 -0.0161247 0.000116 0.155503 0.064687 -0.0402711 2650 
2301 1 -0.004222 0.00515901 -0.016305 4.2e-05 0 -0.011753 0 2650 
3121 1 -0.00377396 0.00504205 -0.0160211 0.000423 0.0295457 0.00139416 -0.0105356 2650 
1388 1 -0.000185649 0.00516875 -0.0162784 0.000116 -0.039288 0.0021603 0.0169103 2650 
302 1 -0.000641334 0.00609667 -0.0164644 0.000116 0.0171051 0.0203877 0.0103663 2650 
1219 1 -0.000913324 0.00660394 -0.0159072 0.000656 0.0133734 0.0239605 0.00857101 2650 
3934 1 -0.001977 0.00814801 -0.016218 0.000116 0 -0.011753 0 2650 
568 1 -0.00394666 0.0160669 -0.0158021 0.000423 0.0646767 0.0324089 0.0265592 2650 
142 1 -0.00300527 0.0225649 -0.015923 0.000423 -0.0926872 0.0526713 -0.0970482 2650 
913 1 -0.000762277 0.0226161 -0.0159325 0.000423 -0.0131935 0.0940792 0.0439723 2650 
1357 1 -0.00404849 0.0449949 -0.0159131 0.000423 0.0681058 0.285169 -0.0155587 2650 
2430 1 -0.0665664 -0.0281061 -0.0154957 0.000656 -1.23063 0.0354675 5.22013 2650 
3786 1 -0.0672376 -0.013653 -0.0149733 0.000116 -1.14931 0.498229 5.1675 2650 
1991 1 -0.00483203 0.000565124 -0.0154054 0.000656 -0.0197706 -0.00214867 0.00868857 2650 
222 1 -0.00193176 0.000715306 -0.0150324 0.000656 -0.00713779 -0.040298 -0.0148088 2650 
2922 1 -0.00636074 0.00176206 -0.0154734 0.000116 -0.0108987 -0.0113206 0.0393947 2650 
3239 1 -0.00274658 0.00170555 -0.0157273 0.000116 -0.00859694 0.0134975 -0.018679 2650 
2399 1 -0.002418 0.00360001 -0.015541 0.000116 0 -0.011753 0 2650 
2283 1 -0.00154543 0.00406523 -0.0151342 0.000116 -0.0318858 -0.01081 -0.0228231 2650 
2313 1 -0.00502865 0.00511821 -0.0153451 0.000656 0.00856952 0.0288131 0.00982472 2650 
2438 1 -0.00574492 0.00673132 -0.0151605 0.000423 0.00192492 -0.00355692 -0.0258764 2650 
978 1 -0.00525188 0.0069081 -0.0154052 0.000116 0.015313 -0.00383775 -0.0151954 2650 
1620 1 -0.004154 0.00706171 -0.0155708 0.000116 0.0529387 0.0514306 -0.00503745 2650 
2969 1 -0.00126868 0.00762127 -0.015096 0.000656 -0.00214235 0.0311769 0.000161156 2650 
1483 1 -0.000279234 0.00810161 -0.0151798 0.000423 -0.023592 0.00968138 -0.006304 2650 
86 1 -0.002064 0.00940401 -0.015055 0.000116 0 -0.011753 0 2650 
3177 1 -0.001068 0.00920401 -0.015412 4.2e-05 0 -0.011753 0 2650 
1228 1 -0.0014101 0.00947104 -0.0150007 0.000423 -0.00123313 -0.0118667 -0.000623591 2650 
3830 1 -0.006879 0.00970001 -0.015411 4.2e-05 0 -0.011753 0 2650 
1617 1 -0.00412685 0.00956245 -0.0154794 0.000116 0.0304875 0.00968505 -0.0492471 2650 
371 1 -0.000472387 0.0101009 -0.0151481 0.000423 0.000724313 -0.00601752 -0.0061741 2650 
938 1 -0.000869 0.01061 -0.015416 0.000116 0 -0.011753 0 2650 
27 1 -0.0670456 -0.0278816 -0.0144162 0.000423 -1.06683 0.072741 4.93204 2650 
3385 1 -0.0674142 -0.0231066 -0.014153 0.000116 -1.06883 0.482838 5.0325 2650 
1185 1 -0.0295841 -0.00968875 -0.0145266 0.000116 -3.97314 -0.802311 -1.99913 2650 
1053 1 -0.007469 -0.000241988 -0.014946 0.000116 0 -0.011753 0 2650 
2827 1 -0.00468002 -0.000737982 -0.0142877 0.000116 -0.0201753 -0.0226203 0.0017234 2650 
2817 1 -0.00200981 -0.000221465 -0.0145427 0.000116 0.0100645 -0.056664 0.00630574 2650 
623 1 -0.00684156 0.000657427 -0.0148697 0.000116 -0.00477071 -0.00938024 -0.0420845 2650 
2332 1 -0.00407764 0.000297435 -0.0144154 0.000423 -0.0114447 -0.00779769 0.00753018 2650 
3637 1 -0.00360581 0.0019537 -0.0149291 0.000423 -0.00927015 0.0142513 -0.0137177 2650 
220 1 -0.003649 0.00266301 -0.014897 4.2e-05 0 -0.011753 0 2650 
4296 1 -0.00282666 0.00582493 -0.0142188 0.000423 -0.0431702 0.0421068 0.0473826 2650 
3365 1 -0.002315 0.00602601 -0.014552 0.000116 0 -0.011753 0 2650 
1618 1 -0.00794979 0.0064512 -0.0147654 0.000116 -0.0222988 0.059375 0.0201275 2650 
3950 1 -0.00658118 0.00669185 -0.0142231 0.000656 -0.0401516 -0.0144037 -0.0334096 2650 
4190 1 -0.00814603 0.00856435 -0.0143234 0.000423 -0.009489 7.8582e-05 0.00632979 2650 
508 1 -0.00834376 0.00804623 -0.0144696 0.000116 -0.0609474 0.0130298 0.0475554 2650 
963 1 -0.00511485 0.00863617 -0.0143257 0.000116 -0.029376 -0.065298 -0.0412241 2650 
581 1 -0.00559238 0.0088777 -0.0142549 0.000423 -0.000593495 -0.0101803 -0.00423903 2650 
3669 1 -0.000303515 0.0108101 -0.0145786 0.000423 0.00220454 -0.00743356 -0.00383523 2650 
3216 1 -0.0045021 0.0239534 -0.0146972 0.000423 -0.00544148 0.107266 0.0543995 2650 
2467 1 -0.00176183 0.0287889 -0.0142973 0.000423 0.0301791 0.103437 0.0421276 2650 
3134 1 -0.0675225 -0.0148415 -0.0136285 0.000116 -0.87395 0.709293 4.29054 2650 
4116 1 -0.0675403 -0.00763534 -0.0135431 0.000116 -0.682657 -0.172089 3.32132 2650 
509 1 -0.00725713 -0.000559737 -0.0135291 0.000116 -0.00521486 0.00944493 -0.0325939 2650 
3733 1 -0.00603397 0.000780915 -0.0140551 0.000656 -0.0234074 0.0166409 0.0163514 2650 
1171 1 -0.00839882 0.00453727 -0.0135175 0.000116 -0.0146011 -0.0168948 -0.0399555 2650 
3587 1 -0.005784 0.00419592 -0.0139928 0.000116 0.00461134 0.0023037 -0.00278329 2650 
4165 1 -0.00516895 0.00472089 -0.013908 0.000656 -0.00035358 -0.0321692 0.0084674 2650 
234 1 -0.00174145 0.00412267 -0.0141317 0.000423 0.0351287 -0.0167305 0.0264562 2650 
2596 1 -0.00870524 0.00581987 -0.0134889 0.000116 -0.0442582 -0.0431064 0.0384975 2650 
1584 1 -0.00132051 0.0068512 -0.0136692 0.000423 -0.00963006 0.0395817 0.04039 2650 
2322 1 -0.00809197 0.00743698 -0.0136673 0.000656 -0.0108707 -0.010103 0.00337555 2650 
1288 1 -0.002467 0.00732901 -0.014044 0.000116 0 -0.011753 0 2650 
4227 1 -0.000167486 0.00730403 -0.0142032 0.000116 -0.00921828 -0.0161692 0.0154311 2650 
3515 1 -0.00696277 0.00801205 -0.0141971 0.000656 -0.00618896 -0.0090925 0.00826116 2650 
2222 1 -0.000329213 0.00813515 -0.0141453 0.000423 -0.00549102 -0.00568171 -0.00117535 2650 
1476 1 -0.006941 0.010129 -0.013435 0.000423 0 -0.011753 0 2650 
233 1 -0.0047856 0.00999757 -0.0139262 0.000423 0.000342891 -0.00976437 -0.0328705 2650 
1986 1 -0.00307901 0.00951196 -0.0140323 0.000656 0.00762539 0.0149956 0.0116892 2650 
4257 1 -0.00843671 0.010834 -0.014146 0.000116 0.0101268 -0.0416798 0.0036163 2650 
1409 1 -0.00044 0.011109 -0.013868 0.000116 0 -0.011753 0 2650 
3644 1 -0.000840999 0.0122551 -0.0142054 0.000423 -0.00432743 0.00711996 -0.0325914 2650 
3632 1 -0.00926634 0.0127866 -0.0136695 0.000423 -0.0221559 0.000444483 0.0133776 2650 
3932 1 -0.00518312 0.0198901 -0.013452 0.000116 0.03152 0.0411719 0.0597923 2650 
2179 1 -0.00886484 0.0468072 -0.014155 0.000116 -0.76016 -0.492651 0.571991 2650 
476 1 -0.0672721 -0.0225974 -0.0133137 0.000423 -0.976312 0.19036 4.98414 2650 
1943 1 -0.0676314 -0.0155934 -0.0130775 0.000116 -1.0336 0.293769 5.20617 2650 
330 1 -0.00677784 -0.0028296 -0.0130153 4.2e-05 -0.0696064 -0.0147686 0.0345761 2650 
4097 1 -0.00864145 -0.00226907 -0.0130575 0.000423 -0.0116536 0.00229875 0.0371095 2650 
800 1 -0.00725295 -0.00194556 -0.0130978 0.000423 0.0734004 0.0256016 0.0971795 2650 
3153 1 -0.00106168 -0.00205944 -0.0133637 0.000116 -0.0842498 -0.0374178 0.0430189 2650 
1468 1 -0.0041368 -0.00145384 -0.0130555 0.000423 -0.0197001 -0.0470204 -0.0326717 2650 
4126 1 -0.00426733 -2.88119e-05 -0.013341 0.000116 -0.0261531 0.0084042 0.00402279 2650 
3551 1 -0.00616032 0.000159521 -0.0131739 0.000423 -0.0244872 0.00255653 0.0109806 2650 
541 1 -0.00610317 0.000571773 -0.0128306 4.2e-05 -0.0143735 0.00954058 0.00936495 2650 
2525 1 -0.004063 0.00155601 -0.013231 4.2e-05 0 -0.011753 0 2650 
2609 1 -0.00886 0.00309601 -0.013248 0.000116 0 -0.011753 0 2650 
2619 1 -0.005851 0.00237201 -0.012854 0.000116 0 -0.011753 0 2650 
3880 1 -0.010277 0.00328801 -0.012913 0.000423 0 -0.011753 0 2650 
3645 1 -0.00529479 0.00337376 -0.0127951 0.000423 -0.0357151 -0.0039173 0.0164321 2650 
3917 1 -0.003984 0.00385701 -0.012703 0.000116 0 -0.011753 0 2650 
2512 1 -0.00973011 0.00469667 -0.0133595 0.000116 0.002514 -0.0160812 -0.0313025 2650 
2918 1 -0.00760088 0.00452252 -0.0130368 0.000116 -0.0132236 0.0205789 -0.0380223 2650 
1032 1 -0.00749753 0.004088 -0.0126982 0.000423 -0.0173367 -0.00904293 -0.0556269 2650 
450 1 -0.0066044 0.00467121 -0.0133399 0.000656 0.0113486 0.0469175 0.00740751 2650 
2912 1 -0.00596266 0.00457874 -0.0128875 0.000116 0.0152844 0.00719243 -0.0503855 2650 
3322 1 -0.00377945 0.00436366 -0.0133467 0.000423 0.0155165 0.0110838 0.0251988 2650 
2059 1 -0.003583 0.00406601 -0.012756 0.000116 0 -0.011753 0 2650 
3380 1 -0.00221498 0.00456844 -0.012632 0.000116 -0.00133046 -0.0120531 0.0302183 2650 
104 1 -0.00286133 0.00561733 -0.0133775 4.2e-05 -0.00674979 0.0150481 0.0116551 2650 
4078 1 -0.00877421 0.00641519 -0.0127305 0.000423 -0.0196946 -0.00953845 0.00130892 2650 
2913 1 -0.00718522 0.00699769 -0.0130185 0.000116 -0.028239 -0.0119827 -0.0130286 2650 
1427 1 -0.002948 0.00639701 -0.013376 4.2e-05 0 -0.011753 0 2650 
1237 1 -0.010245 0.0076418 -0.0128713 0.000423 0.0229951 -0.00489968 0.00418074 2650 
3259 1 -0.00858428 0.00769436 -0.0131029 0.000116 -0.0089878 -0.00810535 0.00538998 2650 
1519 1 -0.00232703 0.00759374 -0.012947 0.000116 -0.0494896 0.0341374 0.0501115 2650 
1795 1 -0.00876359 0.00839528 -0.0129656 0.000423 0.00165908 -0.0118589 -0.000959055 2650 
1769 1 -0.0061934 0.00863611 -0.0133074 0.000656 -0.0180455 -0.00259761 -0.00548469 2650 
1250 1 -0.00770074 0.00901327 -0.0128417 0.000423 -0.0109693 -0.0170514 -0.0143142 2650 
1827 1 -0.00575737 0.00939694 -0.0133533 0.000116 -0.0556457 -0.0263815 -0.0392498 2650 
205 1 -0.000744 0.00911301 -0.01334 0.000116 0 -0.011753 0 2650 
2483 1 -0.00910425 0.00969483 -0.0132619 0.000116 0.00258646 -0.0218162 0.0129531 2650 
949 1 -0.00626849 0.0106102 -0.0126729 0.000116 -0.0176518 0.0277962 -0.00593252 2650 
3007 1 -0.00103253 0.011506 -0.0133744 0.000423 -0.0135196 -0.00505473 -0.0280609 2650 
1775 1 -0.00822706 0.0118584 -0.0130391 0.000423 -7.29146e-05 -0.011186 -0.000346901 2650 
478 1 -0.00695978 0.0147307 -0.013224 0.000423 -0.0255767 0.012458 -0.051203 2650 
3573 1 -0.00778509 0.035416 -0.0133502 0.000116 0.196545 -0.226716 -0.153339 2650 
545 1 -0.002328 -0.00241899 -0.012432 4.2e-05 0 -0.011753 0 2650 
2172 1 -0.00904579 -0.0016723 -0.0119576 0.000116 0.0554355 0.00150652 -0.0523356 2650 
2468 1 -0.003167 -0.00204599 -0.012131 0.000423 0 -0.011753 0 2650 
1763 1 -0.001143 -0.00175799 -0.012442 0.000656 0 -0.011753 0 2650 
3043 1 -0.000311707 -0.00230089 -0.012386 0.000116 -0.16517 0.282697 -0.415627 2650 
2645 1 -0.00557515 -0.00105266 -0.012224 0.000656 -0.0339684 -0.013594 0.0452752 2650 
3191 1 -0.00689631 -0.000327527 -0.0125179 0.000656 -0.0170891 0.00338712 -0.00374039 2650 
756 1 -0.00652943 -0.000675815 -0.0118895 0.000116 0.0784163 0.0334609 0.00356552 2650 
1422 1 -0.003881 8.80122e-05 -0.012349 4.2e-05 0 -0.011753 0 2650 
388 1 -0.00752466 0.0012638 -0.0122871 0.000116 0.0212466 0.0335067 0.0250458 2650 
3201 1 -0.00620187 0.00109166 -0.0124654 0.000423 -0.00608722 0.0216696 0.0089772 2650 
1799 1 -0.00323152 0.000897017 -0.0120574 0.000423 7.10678e-05 -0.0118308 4.63239e-05 2650 
3389 1 -0.010415 0.00235401 -0.012026 0.000116 0 -0.011753 0 2650 
3956 1 -0.00903092 0.00175933 -0.0123036 0.000656 -0.000640959 -0.0104529 -0.000368355 2650 
1125 1 -0.00550715 0.00315136 -0.0118978 0.000423 -0.0456429 0.0111646 0.0284182 2650 
2285 1 -0.0118031 0.00381365 -0.011845 0.000116 -0.013552 0.00856226 -0.0313614 2650 
411 1 -0.0103589 0.00462746 -0.0120893 0.000116 -0.00787832 -0.00657823 -8.20909e-05 2650 
3826 1 -0.009208 0.00424901 -0.012552 0.000116 0 -0.011753 0 2650 
708 1 -0.00274953 0.0045823 -0.012148 0.000423 -0.00318183 -0.00599768 -0.010405 2650 
2194 1 -0.00234921 0.00464161 -0.0125005 4.2e-05 0.00491046 0.00111596 0.00228026 2650 
2957 1 -0.00191865 0.00406215 -0.0122581 4.2e-05 0.0205169 0.0248349 -0.000218849 2650 
3316 1 -0.008979 0.00500201 -0.012376 0.000423 0 -0.011753 0 2650 
1261 1 -0.00744718 0.00497003 -0.0124178 0.000423 -0.000148786 -0.00207045 -0.0014312 2650 
3362 1 -0.00266756 0.00513179 -0.0122502 0.000116 0.000350619 -0.00253681 -0.00404217 2650 
2219 1 -0.00392506 0.00575111 -0.0126274 0.000423 0.0573797 0.046564 0.0166916 2650 
3446 1 -0.002592 0.00600901 -0.012627 0.000423 0 -0.011753 0 2650 
4310 1 -0.000353803 0.00562116 -0.0120191 0.000423 0.011252 0.0218425 0.101284 2650 
3030 1 -0.001189 0.00651201 -0.012596 0.000116 0 -0.011753 0 2650 
445 1 -0.00951914 0.00718308 -0.011858 0.000656 -0.0152041 0.0239941 -0.0412097 2650 
4318 1 -0.0085548 0.00774352 -0.0123537 0.000423 -0.00589465 -0.00768269 0.00318441 2650 
3847 1 -0.00967286 0.00859355 -0.0124122 0.000656 0.00296919 -0.00343098 -0.00030598 2650 
3173 1 -0.004958 0.00864101 -0.012321 4.2e-05 0 -0.011753 0 2650 
1495 1 -0.004483 0.00798001 -0.012591 0.000116 0 -0.011753 0 2650 
3684 1 -0.00435303 0.00831396 -0.01236 0.000116 0.00413104 -0.0230128 -0.00941473 2650 
4002 1 -0.000443 0.00867301 -0.01223 0.000116 0 -0.011753 0 2650 
4179 1 -0.00706601 0.00910494 -0.0120775 0.000423 -0.00767678 -0.0221048 -0.00852388 2650 
2630 1 -0.001036 0.00884901 -0.012074 4.2e-05 0 -0.011753 0 2650 
289 1 -0.00118698 0.00976537 -0.0119582 0.000116 -0.0188061 -0.000940224 -0.0594549 2650 
1423 1 -0.00145 0.010329 -0.012526 4.2e-05 0 -0.011753 0 2650 
3106 1 -0.00694749 0.0116349 -0.0121351 0.000423 -0.042507 0.0242048 -0.0146805 2650 
959 1 -0.00659717 0.011884 -0.0126083 0.000116 -0.0723779 0.0623805 -0.0339909 2650 
1802 1 -0.00418186 0.0124618 -0.0119563 0.000423 0.00500259 -0.000364755 -0.0111755 2650 
2205 1 -0.00509559 0.0132757 -0.0120047 0.000656 -0.00206311 0.000112593 -0.00429342 2650 
1143 1 -0.000889407 0.0143545 -0.0124612 0.000423 0.0070315 0.0110531 -0.00616027 2650 
675 1 -0.0050173 0.0206604 -0.0125064 0.000423 -0.0171714 0.0807922 0.0289201 2650 
1979 1 -0.00723575 0.0227451 -0.0120927 4.2e-05 -0.060479 0.115177 0.0648972 2650 
2109 1 -0.00570932 0.0228675 -0.0118729 0.000423 -0.0277695 0.107912 0.0279852 2650 
3349 1 -0.0134905 -0.00360884 -0.0114509 0.000116 -1.64092 -0.0669598 -1.43835 2650 
2413 1 -0.00834055 -0.00262826 -0.0116853 4.2e-05 -0.0826713 -0.0311639 0.0536157 2650 
3505 1 -0.006952 -0.00274999 -0.011235 4.2e-05 0 -0.011753 0 2650 
1022 1 -0.002093 -0.00287999 -0.011454 0.000423 0 -0.011753 0 2650 
440 1 -0.00061 -0.00144799 -0.011485 4.2e-05 0 -0.011753 0 2650 
2939 1 -0.00934538 0.000251256 -0.0114617 0.000116 -0.00341769 -0.0275913 0.0148239 2650 
3200 1 -0.00815209 0.000340189 -0.0115209 0.000423 -0.0275514 -0.0115593 0.0194145 2650 
3778 1 -0.0061717 0.00131502 -0.0111738 0.000423 -0.0441284 0.0265152 0.0540744 2650 
1063 1 -0.009531 0.00227801 -0.011683 0.000116 0 -0.011753 0 2650 
3894 1 -0.005583 0.00172301 -0.011098 0.000116 0 -0.011753 0 2650 
3477 1 -0.0102361 0.00284104 -0.0113202 0.000116 0.0616358 -0.0139442 -0.0219299 2650 
1595 1 -0.00787062 0.00288554 -0.0114763 0.000423 -0.0081111 0.00198047 0.0261702 2650 
2279 1 -0.0119254 0.00348805 -0.0111564 0.000116 -0.0158908 0.0502304 0.00803902 2650 
2062 1 -0.00614886 0.00335773 -0.011214 0.000116 0.0129099 -0.0677536 -0.0535012 2650 
1192 1 -0.00487883 0.00336331 -0.0116124 0.000116 -0.0160738 0.0171838 -0.0228619 2650 
2294 1 -0.004894 0.00395901 -0.011565 0.000116 0 -0.011753 0 2650 
878 1 -0.0039119 0.00457553 -0.0112089 4.2e-05 -0.000281569 -0.00211859 -0.00050102 2650 
2474 1 -0.00256232 0.00399647 -0.0112496 0.000423 -0.00380852 -0.00865862 -0.00797376 2650 
1822 1 -0.00806199 0.00500597 -0.0111648 0.000116 -0.0361035 -0.0195415 0.0016013 2650 
3221 1 -0.00754679 0.00516601 -0.0112277 0.000423 -0.0383607 -5.03589e-05 -0.0190963 2650 
1758 1 -0.00201 0.00527301 -0.01144 4.2e-05 0 -0.011753 0 2650 
1215 1 -0.01159 0.00554567 -0.0111792 0.000656 -0.0111274 -0.00319459 -0.00262745 2650 
3283 1 -0.00144038 0.00575798 -0.0111813 4.2e-05 0.0397515 0.0433617 -0.0233311 2650 