ITEM: TIMESTEP
3077430
ITEM: NUMBER OF ATOMS
4379
ITEM: BOX BOUNDS ff ff ff
-0.15 0.15
-0.15 0.06
-0.15 0.15
ITEM: ATOMS id type x y z radius vx vy vz density 
482 1 -0.00514215 -0.0536773 -0.0683852 0.000423 -4.52866 0.223239 0.358262 2650 
4026 1 -0.0128861 -0.058107 -0.0676656 0.000116 -1.43372 -0.0778942 0.300878 2650 
418 1 -0.0171558 -0.0622037 -0.0650649 0.000116 -7.90228 0.0812302 2.44458 2650 
1270 1 -0.0168826 -0.0623422 -0.0650799 0.000116 -7.73403 -0.249118 2.16323 2650 
1856 1 -0.0400984 -0.0526246 -0.0560095 0.000116 -3.53353 0.28545 2.54134 2650 
634 1 -0.0488374 -0.0543517 -0.0485788 0.000116 -5.3959 0.242228 5.4447 2650 
3570 1 -0.05849 -0.0451578 -0.036372 0.000116 -2.24506 -0.429916 3.5302 2650 
618 1 -0.0682675 -0.0543972 -0.00911556 0.000116 -0.58879 0.374664 4.697 2650 
1740 1 -0.0676035 -0.0494865 0.0132221 0.000116 0.752204 0.00803401 3.80801 2650 
1135 1 -0.0629443 -0.060979 0.0272155 0.000423 1.72466 0.223084 3.91713 2650 
4037 1 -0.0633728 -0.0591827 0.0269946 0.000116 1.45028 -0.0178111 3.34226 2650 
2238 1 -0.060231 -0.04879 0.032789 0.000423 1.70947 -0.726413 3.14246 2650 
3850 1 -0.0580597 -0.0503895 0.0364975 0.000423 2.21181 -0.259922 3.48165 2650 
1462 1 -0.0505894 -0.0553647 0.0462786 0.000423 3.82077 0.461075 4.18812 2650 
3946 1 -0.0485444 -0.060125 0.0489734 4.2e-05 2.53384 -0.0438129 2.38815 2650 
1612 1 -0.0383623 -0.0576294 0.0572133 0.000116 4.71541 0.113451 3.14454 2650 
3252 1 -0.0367498 -0.0496502 0.0582623 0.000116 3.69372 0.153627 2.27657 2650 
3440 1 -0.0333636 -0.0475103 0.0599136 0.000423 4.72801 -0.264481 2.66859 2650 
2702 1 -0.0328602 -0.0469313 0.0605397 0.000116 4.83641 -0.0955025 2.55316 2650 
1943 1 -0.00151412 -0.0523519 0.0688514 0.000116 4.06615 -0.205513 0.0995741 2650 
4360 1 -0.0028942 -0.000116033 -0.0688231 0.000116 -4.80526 -0.000225103 0.209773 2650 
1649 1 -0.00777987 -0.0292013 -0.0685181 4.2e-05 -4.44382 -0.103186 0.496553 2650 
1447 1 -0.00332161 -0.0238531 -0.0684971 0.000423 -4.43651 -0.0294249 0.226873 2650 
992 1 -0.00280298 -0.0217271 -0.0682884 0.000656 -4.91762 -0.236197 0.218158 2650 
114 1 -0.00187573 -0.0194795 -0.0683198 0.000656 -4.419 -0.25198 0.119693 2650 
2681 1 -0.00254513 -0.00787331 -0.0685308 0.000423 -3.6383 -0.167571 0.147308 2650 
1619 1 -0.0140375 -0.0171855 -0.0674372 0.000116 -3.28276 -0.325809 0.738763 2650 
1781 1 -0.0165337 -0.0351379 -0.0665484 0.000423 -3.96945 -0.834257 0.82686 2650 
3881 1 -0.0152182 -0.0180283 -0.0668647 0.000423 -3.62971 -0.216805 0.824641 2650 
3817 1 -0.0164743 -0.014444 -0.0668828 0.000116 -3.55622 -0.153161 0.69258 2650 
3390 1 -0.0168018 -0.011218 -0.0667846 0.000116 -3.46302 -0.16572 0.735486 2650 
3840 1 -0.0187373 -0.0341173 -0.0656985 0.000656 -4.05054 -0.730394 1.21654 2650 
2612 1 -0.0204162 -0.0338324 -0.0657875 0.000116 -4.23423 -0.68164 1.32067 2650 
4334 1 -0.0196019 -0.0163539 -0.0660303 0.000116 -3.28874 -0.200933 1.06827 2650 
1410 1 -0.0207421 -0.0144132 -0.0656868 0.000116 -3.44207 -0.154323 1.14546 2650 
3974 1 -0.0182136 -0.00609429 -0.0660891 0.000423 -5.27938 -0.258938 1.48937 2650 
4101 1 -0.0187738 -0.00522962 -0.0659453 0.000423 -5.24035 -0.305351 1.60837 2650 
4213 1 -0.0217846 -0.0323946 -0.0650255 0.000423 -4.01437 -0.0818926 1.34947 2650 
2048 1 -0.0230613 -0.0130531 -0.0649086 0.000116 -3.33319 -0.24782 1.17496 2650 
2367 1 -0.0238612 -0.0113187 -0.0646193 0.000116 -3.34248 -0.196036 1.21713 2650 
3360 1 -0.027377 -0.0213972 -0.0631793 0.000116 -3.85446 -0.215518 2.19944 2650 
2626 1 -0.0261612 -0.0143392 -0.0637227 0.000116 -3.53696 -0.616895 1.46097 2650 
3729 1 -0.0264985 -0.0209534 -0.0630009 0.000656 -4.69516 -0.20704 1.95602 2650 
2023 1 -0.0298873 -0.0423757 -0.0617224 0.000423 -4.02654 -0.0226907 1.97978 2650 
2954 1 -0.0311566 -0.000954156 -0.0614347 0.000116 -3.82875 0.000591027 1.95471 2650 
3691 1 -0.033534 -0.0283594 -0.0601695 0.000116 -3.04182 -0.557013 1.70482 2650 
574 1 -0.0329455 -0.0237118 -0.0601455 0.000423 -4.23801 0.242536 2.3515 2650 
1961 1 -0.0338706 -0.0174839 -0.0599805 0.000116 -4.0744 0.467748 2.30465 2650 
681 1 -0.0326359 -0.0113855 -0.0603134 0.000423 -3.40302 -0.1602 1.82292 2650 
3779 1 -0.0329723 -0.00103166 -0.0601305 0.000423 -3.57896 -0.151839 1.99432 2650 
2911 1 -0.0341265 -0.0270795 -0.0594835 0.000423 -3.11187 -0.434825 1.75152 2650 
1314 1 -0.0340855 -0.0225352 -0.0599436 4.2e-05 -5.21079 -0.181164 2.9579 2650 
3649 1 -0.0355707 -0.0279081 -0.0586264 0.000423 -3.45415 -0.385152 1.99032 2650 
2028 1 -0.0348439 -0.0279555 -0.05906 0.000423 -3.34488 -0.0628725 2.01739 2650 
1417 1 -0.0364833 -0.0274131 -0.0584216 0.000116 -3.48015 0.051002 2.11196 2650 
2705 1 -0.0362253 -0.0197787 -0.0585896 0.000116 -2.65609 -0.684222 1.63035 2650 
1816 1 -0.0377314 -0.0369909 -0.0576279 0.000116 -3.05532 0.107807 2.084 2650 
753 1 -0.0396961 -0.0283183 -0.0562501 0.000116 -2.62503 -0.206255 1.91552 2650 
902 1 -0.0384565 -0.0241127 -0.0567689 0.000423 -3.57059 -0.359335 2.39616 2650 
1915 1 -0.0388123 -0.0200369 -0.0565372 0.000423 -3.59645 -0.206677 2.45538 2650 
1202 1 -0.0399415 -0.0154411 -0.0561996 4.2e-05 -2.86167 -0.165118 2.08024 2650 
2588 1 -0.0394378 -0.0120661 -0.0564417 0.000116 -3.11716 -0.164929 2.13516 2650 
3375 1 -0.0389018 -0.00599908 -0.0568135 0.000116 -2.86717 -0.11909 1.87371 2650 
2404 1 -0.0409463 -0.0336674 -0.055379 0.000116 -3.83581 -0.34089 3.0623 2650 
1107 1 -0.0401754 -0.033568 -0.0552632 0.000656 -3.88363 -0.0246916 2.89991 2650 
2087 1 -0.0406469 -0.0217417 -0.0556964 4.2e-05 -3.7921 -0.513788 2.76173 2650 
4069 1 -0.0400403 -0.0121596 -0.0556432 0.000423 -3.00896 -0.140073 2.22339 2650 
4009 1 -0.0409178 -0.00980128 -0.0553962 0.000116 -2.69133 -0.17592 2.22723 2650 
1407 1 -0.0403054 -0.00518046 -0.0558457 0.000116 -2.95673 -0.102943 2.32146 2650 
575 1 -0.0409136 -0.0282721 -0.0550301 0.000423 -2.88249 -0.41706 2.47553 2650 
2691 1 -0.0413853 -0.0154112 -0.0546806 0.000423 -3.14468 -0.400818 2.38076 2650 
1275 1 -0.0430699 -0.00230469 -0.0537584 0.000116 -2.80385 -0.125799 2.24136 2650 
379 1 -0.0427016 -0.0332803 -0.0536604 0.000423 -3.16771 -0.278043 2.49602 2650 
747 1 -0.0443139 -0.026507 -0.0527377 0.000116 -2.55187 -0.89267 2.19402 2650 
83 1 -0.0446649 -0.0197456 -0.0524407 0.000116 -2.64979 -0.335796 2.2417 2650 
3514 1 -0.0441976 -0.0185417 -0.0521312 0.000656 -3.37764 -0.260827 2.84029 2650 
1952 1 -0.0452306 -0.0208415 -0.0519536 0.000116 -3.29362 -0.428126 2.86193 2650 
2703 1 -0.0451942 -0.0150197 -0.0519852 0.000116 -2.54485 -0.286147 2.2113 2650 
167 1 -0.0459398 -0.0091804 -0.0513279 0.000116 -2.58886 -0.201465 2.32973 2650 
3671 1 -0.0453692 -0.00361688 -0.0514258 0.000423 -2.8676 0.137635 2.521 2650 
981 1 -0.046321 -0.0176018 -0.0510832 4.2e-05 -2.50478 -0.265379 2.27107 2650 
4305 1 -0.0461 -0.00132936 -0.0507708 0.000423 -3.36549 -0.094452 3.03045 2650 
2966 1 -0.0464172 -0.0152506 -0.050166 0.000656 -2.41472 -0.382685 2.38334 2650 
2291 1 -0.047826 -0.00657509 -0.0495757 0.000116 -2.38941 -0.115517 2.31968 2650 
3812 1 -0.0518419 -0.0441234 -0.0453586 0.000116 -3.10832 0.336066 3.53398 2650 
2350 1 -0.0512906 -0.0234274 -0.0455206 0.000423 -2.76097 -0.671452 3.18027 2650 
327 1 -0.0119511 -0.00392022 -0.0454368 4.2e-05 -1.79374 -0.0880263 -6.82916 2650 
3154 1 -0.0522495 -0.017316 -0.0448876 0.000116 -2.3742 -0.242489 2.7306 2650 
336 1 -0.0521863 -0.0248647 -0.0441318 0.000656 -2.99696 -0.143536 3.55531 2650 
2256 1 -0.0530562 -0.0152544 -0.0439266 0.000116 -2.39666 -0.2493 2.84754 2650 
1924 1 -0.0492872 -0.0128381 -0.0437228 0.000423 -2.04666 -0.594281 2.64674 2650 
3724 1 -0.0539309 -0.026909 -0.0429732 4.2e-05 -2.01744 -0.365907 2.51238 2650 
2051 1 -0.0535234 -0.0268278 -0.0433627 0.000116 -3.01827 -1.09877 3.70236 2650 
1304 1 -0.0538186 -0.0240028 -0.0429946 0.000116 -3.02333 -0.331966 3.8041 2650 
2544 1 -0.0196459 -0.00668291 -0.0432574 0.000423 -2.98063 -0.308096 -6.51804 2650 
4150 1 -0.0122011 -0.00416805 -0.0419085 0.000116 -1.86184 -0.108264 -6.30582 2650 
2732 1 -0.0551869 -0.0132978 -0.0412031 0.000116 -1.82456 -0.388389 2.71223 2650 
2296 1 -0.0565765 -0.0258668 -0.0392943 0.000116 -2.43618 -0.657187 3.50849 2650 
428 1 -0.0564445 -0.00968123 -0.0394329 0.000116 -1.87279 -0.304521 2.65464 2650 
228 1 -0.057314 -0.0224701 -0.0372301 0.000656 -2.59258 -0.108168 3.96828 2650 
3314 1 -0.00150362 -0.0100807 -0.0356693 0.000423 -0.280022 -0.669878 -4.9916 2650 
163 1 -0.0591638 -0.0316183 -0.0346225 0.000423 -2.10331 -0.213937 3.67962 2650 
3372 1 -0.0607301 -0.0318082 -0.0324854 0.000116 -1.69091 -0.23238 3.1076 2650 
3580 1 -0.0614468 -0.0222403 -0.0309073 0.000116 -2.29704 -0.589741 3.93675 2650 
868 1 -0.000511384 -0.00372996 -0.0312962 0.000116 -0.073863 -0.0734209 -4.52034 2650 
3018 1 -0.0614758 -0.0310175 -0.030385 0.000423 -1.71287 -0.415676 3.4572 2650 
2928 1 -0.0623341 -0.0205055 -0.0293184 0.000116 -1.49871 -0.251491 3.14263 2650 
2165 1 -0.0623724 -0.0137994 -0.0292355 0.000116 -1.64032 -0.422103 3.48663 2650 
2895 1 -0.0619269 -0.0076363 -0.0294633 0.000423 -1.79974 -0.166313 3.76173 2650 
4087 1 -0.0629869 -0.0196321 -0.027122 0.000423 -1.61024 -0.179509 3.70049 2650 
4128 1 -0.0620965 -0.00445876 -0.026965 0.000116 -0.414606 -0.155993 3.35649 2650 
2745 1 -0.0642464 -0.0225562 -0.025051 4.2e-05 -2.24897 -0.199505 5.7766 2650 
1601 1 -0.0644664 -0.0248731 -0.0242716 0.000116 -1.51632 -0.19081 4.03822 2650 
1585 1 -0.0263933 -0.00452551 -0.0236818 0.000423 -4.05815 -0.128735 -3.63553 2650 
2198 1 -0.0656931 -0.0193021 -0.0209661 4.2e-05 -1.96388 -0.952656 6.12073 2650 
1461 1 -0.0653395 -0.013476 -0.020825 0.000423 -1.39579 -0.188844 4.38807 2650 
893 1 -0.0658322 -0.040893 -0.0192114 0.000423 -1.09259 -0.311355 3.74565 2650 
2679 1 -0.0658443 -0.0269172 -0.0191694 0.000423 -1.09586 -0.290942 3.70143 2650 
1841 1 -0.0661961 -0.0168818 -0.0190546 0.000116 -1.03898 -0.234861 3.53211 2650 
1136 1 -0.0659948 -0.022917 -0.0186432 0.000423 -1.34874 0.118418 4.71715 2650 
2858 1 -0.065757 -0.0197042 -0.0186333 0.000656 -1.3083 -0.306514 4.69038 2650 
1207 1 -0.0664509 -0.0180705 -0.018423 4.2e-05 -0.935122 -0.230677 3.32258 2650 
2557 1 -0.0661809 -0.0305617 -0.0179728 0.000423 -1.24741 -0.357118 4.53619 2650 
3615 1 -0.066891 -0.00636307 -0.0167551 4.2e-05 -1.66175 -0.127518 6.60499 2650 
528 1 -0.0553471 -0.00583765 -0.0171052 0.000116 -8.64312 -0.192336 -2.66933 2650 
4056 1 -0.00184901 -0.00513375 -0.0168331 0.000656 -0.052979 -0.594276 -0.785161 2650 
606 1 -0.000183 0.00421234 -0.016592 0.000116 0 -0.011753 0 2650 
2713 1 -0.000763 0.0111833 -0.016767 0.000116 0 -0.011753 0 2650 
1979 1 -0.00297232 0.0146384 -0.0165872 4.2e-05 -0.0899116 0.138255 -0.11345 2650 
1320 1 -0.0669812 -0.00660806 -0.0163913 4.2e-05 -0.785851 -0.142537 3.18976 2650 
223 1 -0.0663892 -0.00492336 -0.0162373 0.000656 -1.67251 -0.0621015 6.68637 2650 
3603 1 -0.00986878 -0.00388959 -0.0163938 0.000116 -1.27734 -0.104138 -2.0676 2650 
3904 1 -0.00365742 -0.00215971 -0.0161266 0.000116 -0.0737869 -0.0435085 -0.0791619 2650 
2127 1 -0.00258516 -0.00178124 -0.0162634 0.000423 -0.145304 0.230992 -0.0657014 2650 
2875 1 -0.0016022 -0.00163219 -0.0159538 0.000423 -0.067909 -0.00649773 -0.0212796 2650 
4116 1 -0.004072 -0.00144466 -0.016193 0.000116 0 -0.011753 0 2650 
2645 1 -0.00217783 -0.000717975 -0.0160194 0.000656 -0.076487 -0.0447945 0.0551309 2650 
1991 1 -0.00333551 0.000709117 -0.015882 0.000656 -0.029887 -0.00343273 0.00394771 2650 
150 1 -0.00193792 0.000589912 -0.0163065 0.000423 -0.00905839 0.0051051 -0.00106565 2650 
736 1 -0.003429 0.00213734 -0.016474 0.000116 0 -0.011753 0 2650 
676 1 -0.000680551 0.00189688 -0.0162454 0.000423 -0.0285827 0.0077176 0.0232959 2650 
2013 1 -0.00298601 0.00352112 -0.0162299 0.000423 0.00266818 -0.00871737 -0.00337826 2650 
1698 1 -0.000347807 0.00339495 -0.0160981 0.000423 -0.0123561 0.00250859 -0.0148315 2650 
234 1 -0.00419538 0.00530151 -0.0159347 0.000423 0.00472056 -0.0217141 -0.0831894 2650 
2301 1 -0.004222 0.00598534 -0.016305 4.2e-05 0 -0.011753 0 2650 
3789 1 -0.00141337 0.0058438 -0.0163262 0.000116 0.030547 0.0102001 0.00865191 2650 
188 1 -0.00068 0.00575434 -0.016516 0.000116 0 -0.011753 0 2650 
3546 1 -0.00168879 0.00649645 -0.0162497 0.000423 0.0221028 0.00916909 -0.0203984 2650 
3616 1 -0.000938 0.00654934 -0.016074 4.2e-05 0 -0.011753 0 2650 
508 1 -0.00314621 0.00730433 -0.0164864 0.000116 -0.0867988 0.00663082 -0.017321 2650 
3934 1 -0.001977 0.00897434 -0.016218 0.000116 0 -0.011753 0 2650 
1537 1 -0.0672529 -0.0174728 -0.0152282 4.2e-05 -0.765402 -0.212072 3.38421 2650 
615 1 -0.0347249 -0.00536382 -0.0158059 0.000116 -4.93614 -0.247571 -2.17048 2650 
2606 1 -0.00102225 -0.00262805 -0.0156861 0.000116 -0.0805419 -0.112845 0.0598694 2650 
93 1 -0.00598635 -0.00160644 -0.015595 0.000116 -0.0674932 -0.0307806 0.026204 2650 
330 1 -0.00188397 -0.00179125 -0.0154463 4.2e-05 -0.0696064 -0.0147686 0.0345761 2650 
2690 1 -0.00163166 -0.0021818 -0.0152366 0.000423 -0.0110062 -0.0487697 -0.0147461 2650 
2965 1 -0.00106863 -0.00233907 -0.0152912 4.2e-05 -0.0448143 -0.0612344 0.0351436 2650 
3196 1 -0.00614268 -0.00126238 -0.0151001 0.000423 0.000846778 -0.0279426 0.0233611 2650 
1808 1 -0.00354163 -0.00143367 -0.0156314 0.000423 -0.0435782 -0.0102808 0.0208174 2650 
3733 1 -0.00433434 -6.05062e-05 -0.0154656 0.000656 -0.0212233 0.00596614 0.0148962 2650 
541 1 -0.00374503 -0.000246854 -0.0150497 4.2e-05 -0.0428204 0.0143713 0.0426846 2650 
1618 1 -0.00579194 0.00214135 -0.0153346 0.000116 -0.0316941 0.0615295 0.00665882 2650 
2313 1 -0.00493642 0.00182215 -0.0154374 0.000656 -0.00048439 0.0541327 0.00642736 2650 
1679 1 -0.003614 0.00323922 -0.0156343 0.000423 -0.000267589 -0.00703629 -0.00433961 2650 
2399 1 -0.002418 0.00442634 -0.015541 0.000116 0 -0.011753 0 2650 
3121 1 -0.00576272 0.00504366 -0.0153579 0.000423 0.0277737 -0.000599869 -0.0089826 2650 
4296 1 -0.00154284 0.00488533 -0.015745 0.000423 0.00734757 -0.0161826 -0.00468825 2650 
1219 1 -0.0023601 0.00558639 -0.0155773 0.000656 0.0247953 0.0119825 -0.00616517 2650 
2969 1 -0.00136833 0.00701513 -0.015327 0.000656 0.00354333 -0.00674524 0.00643714 2650 
978 1 -0.005372 0.00767234 -0.015286 0.000116 0 -0.011753 0 2650 
2596 1 -0.00518472 0.00882463 -0.0152009 0.000116 -0.0696583 -0.0414928 -0.0233005 2650 
86 1 -0.002064 0.0102303 -0.015055 0.000116 0 -0.011753 0 2650 
3177 1 -0.001068 0.0100303 -0.015412 4.2e-05 0 -0.011753 0 2650 
3830 1 -0.006879 0.0105263 -0.015411 4.2e-05 0 -0.011753 0 2650 
938 1 -0.000869 0.0114363 -0.015416 0.000116 0 -0.011753 0 2650 
4267 1 -0.00531749 0.0235231 -0.0155368 4.2e-05 0.0268407 0.137161 0.0861779 2650 
2701 1 -0.00124438 0.0243061 -0.0155264 0.000116 0.0331549 0.247236 -0.00676049 2650 
1347 1 -0.00478956 0.0344956 -0.0155676 0.000423 -0.162332 0.209952 0.0301271 2650 
3502 1 -0.001236 -0.00266466 -0.014816 4.2e-05 0 -0.011753 0 2650 
1640 1 -0.0012389 -0.00133805 -0.0146321 4.2e-05 0.028899 -0.0133034 -0.0332578 2650 
1535 1 -0.0674372 -4.20702e-05 -0.0143978 4.2e-05 -1.02756 -0.00377625 4.86404 2650 
2413 1 -0.003433 -0.000649659 -0.014868 4.2e-05 0 -0.011753 0 2650 
3441 1 -0.00263525 -0.000507485 -0.0143839 0.000423 0.0511961 0.0224295 0.00157087 2650 
1053 1 -0.007469 0.000584341 -0.014946 0.000116 0 -0.011753 0 2650 
450 1 -0.00782284 0.00148012 -0.0142149 0.000656 -0.028043 0.0444023 -0.0860848 2650 
2332 1 -0.00327819 0.000887863 -0.0147964 0.000423 -0.00175235 -0.00960017 0.00973446 2650 
3239 1 -0.002155 0.000794341 -0.014442 0.000116 0 -0.011753 0 2650 
1620 1 -0.00772668 0.00338615 -0.0146064 0.000116 0.0432755 0.0552866 -0.0445268 2650 
1093 1 -0.00477912 0.0032981 -0.0143608 4.2e-05 -0.0377884 0.0174852 0.109535 2650 
220 1 -0.003649 0.00348934 -0.014897 4.2e-05 0 -0.011753 0 2650 
3322 1 -0.00457201 0.00442671 -0.0149422 0.000423 0.00353739 -0.017928 0.0139954 2650 
3380 1 -0.00208374 0.00518901 -0.0147556 0.000116 -0.00549837 0.0130283 0.0301104 2650 
4165 1 -0.00537595 0.00580583 -0.0142142 0.000656 0.00388545 0.0106393 0.0146387 2650 
3147 1 -0.00205715 0.00601594 -0.0143218 0.000116 0.0591802 0.0154935 -0.054385 2650 
3564 1 -0.000147 0.00621534 -0.014738 0.000423 0 -0.011753 0 2650 
2438 1 -0.005612 0.00678734 -0.014612 0.000423 0 -0.011753 0 2650 
3365 1 -0.002315 0.00685234 -0.014552 0.000116 0 -0.011753 0 2650 
4190 1 -0.00743173 0.00861672 -0.0146773 0.000423 -0.0186912 -0.00700163 -0.00506665 2650 
1986 1 -0.00361513 0.00845765 -0.0148541 0.000656 0.00762539 0.0149956 0.0116892 2650 
3515 1 -0.00636184 0.00874242 -0.0148864 0.000656 -0.0124684 -0.0117033 0.0111726 2650 
1228 1 -0.0013234 0.0103054 -0.0149568 0.000423 -0.00123313 -0.0118667 -0.000623591 2650 
371 1 -0.000523312 0.010524 -0.014714 0.000423 0.000724313 -0.00601752 -0.0061741 2650 
3669 1 -0.000458511 0.0113327 -0.0143089 0.000423 0.00220454 -0.00743356 -0.00383523 2650 
3632 1 -0.00765083 0.0127884 -0.0146092 0.000423 -0.0240755 -0.00064867 0.0133566 2650 
675 1 -0.00380061 0.0147453 -0.0148511 0.000423 -0.0185613 0.11548 0.0749126 2650 
3455 1 -0.00242767 0.0150287 -0.0149718 0.000423 -0.039909 0.0392628 -0.197047 2650 
3205 1 -0.000488583 0.0241272 -0.0146777 0.000423 -0.0474712 0.144601 0.126977 2650 
1636 1 -0.000547966 0.0408382 -0.014941 0.000116 0.319403 -0.362976 -0.00255225 2650 
38 1 -0.0671056 -0.0123379 -0.0140502 0.000423 -1.02741 -0.467805 4.32245 2650 
3470 1 -0.0674565 -0.0117232 -0.013843 0.000116 -0.982754 -0.353962 4.31078 2650 
2559 1 -0.00358432 -0.00335365 -0.0139768 0.000423 -0.232051 -0.0364036 -0.616987 2650 
343 1 -0.000271527 -0.00347456 -0.0141947 0.000423 -0.0970787 -0.0765065 -0.916496 2650 
955 1 -0.00631751 -0.00130707 -0.0137625 0.000116 -0.12233 -0.0547202 -0.0330024 2650 
3999 1 -0.00138824 -0.00117092 -0.0141418 0.000423 0.0633343 0.0169118 -0.00164129 2650 
388 1 -0.00900764 -0.000590507 -0.0140739 0.000116 -0.0420133 -0.0198333 -0.0745178 2650 
3200 1 -0.00747126 -0.000532606 -0.0136553 0.000423 0.0205513 0.040167 0.0362369 2650 
4126 1 -0.00242856 -0.000619693 -0.0136239 0.000116 -0.0261531 0.0084042 0.00402279 2650 
3778 1 -0.00392167 0.000236231 -0.0138414 0.000423 -0.00179903 -0.0118226 -0.00159569 2650 
2827 1 -0.00335658 0.00054891 -0.0138143 0.000116 -0.025498 -0.0149893 -0.0266212 2650 
2783 1 -0.00203142 0.000324455 -0.0141115 0.000423 0.0359054 0.0369528 -0.00810704 2650 
3351 1 -0.000406044 0.000124404 -0.0136427 0.000116 0.0916923 -0.0624662 0.0949948 2650 
3637 1 -0.00289916 0.000970321 -0.0138324 0.000423 -0.0242757 0.00976039 -0.0494611 2650 
248 1 -0.00390559 0.00177872 -0.0139728 0.000423 -0.125752 -0.00445654 0.0417904 2650 
1125 1 -0.00234789 0.00207124 -0.0135071 0.000423 -0.0447254 0.0166037 0.0212545 2650 
2219 1 -0.00796066 0.00257376 -0.0137722 0.000423 0.0576419 0.0279299 0.011145 2650 
4371 1 -3.38768e-05 0.00256164 -0.0139126 0.000116 0.0456485 0.0445316 -0.0721308 2650 
3645 1 -0.00266156 0.00373735 -0.013943 0.000423 -0.0384881 -0.00405051 0.0134405 2650 
222 1 -0.00162725 0.00383445 -0.0135616 0.000656 -0.000929496 -0.0489405 -0.0286938 2650 
3587 1 -0.00610821 0.00403395 -0.0137971 0.000116 0.00461134 0.0023037 -0.00278329 2650 
104 1 -0.00238676 0.00455933 -0.014197 4.2e-05 -0.00674979 0.0150481 0.0116551 2650 
1584 1 -0.00252917 0.00593744 -0.013976 0.000423 0.0364201 -0.0107182 -0.0600501 2650 
2322 1 -0.0074612 0.00804031 -0.0137652 0.000656 -0.0072434 -0.0058036 -0.00285609 2650 
1288 1 -0.002467 0.00815534 -0.014044 0.000116 0 -0.011753 0 2650 
958 1 -0.00440931 0.00935104 -0.0134725 0.000116 0.0401715 0.0303898 0.081686 2650 
2222 1 -0.000169 0.00878434 -0.014111 0.000423 0 -0.011753 0 2650 
581 1 -0.005568 0.00967634 -0.014167 0.000423 0 -0.011753 0 2650 
1476 1 -0.006941 0.0109553 -0.013435 0.000423 0 -0.011753 0 2650 
2483 1 -0.00906681 0.011293 -0.0138002 0.000116 -0.0165283 -0.027419 -0.0195094 2650 
1409 1 -0.00044 0.0119353 -0.013868 0.000116 0 -0.011753 0 2650 
2109 1 -0.00376631 0.0155152 -0.0135291 0.000423 -0.0263796 0.073224 -0.0180073 2650 
2467 1 -0.00369112 0.021066 -0.0138813 0.000423 0.022189 0.122131 -0.0980488 2650 
1254 1 -0.00626856 0.0221853 -0.0138301 0.000423 -0.0693317 0.161023 -0.144827 2650 
2209 1 -0.00912808 0.0238576 -0.0135356 0.000656 0.227037 0.0396043 -0.1192 2650 
1357 1 -0.00853937 0.0248008 -0.0137763 0.000423 0.0624779 0.287902 -0.0352894 2650 
819 1 -0.00769583 0.0283584 -0.0139099 0.000423 0.076373 0.150736 0.0329282 2650 
1548 1 -0.000212285 0.031812 -0.0141377 0.000656 0.0728943 0.135789 0.130375 2650 
1042 1 -0.067403 -0.0225868 -0.012626 0.000423 -0.712834 -0.339493 3.52687 2650 
3633 1 -0.00941 -0.00304866 -0.013111 0.000423 0 -0.011753 0 2650 
1393 1 -0.0103756 -0.00229302 -0.0131858 0.000116 -0.0365642 -0.00979486 0.0367338 2650 
3295 1 -0.00727142 -0.0021491 -0.0133797 0.000656 -0.140895 0.0623342 -0.0300138 2650 
3303 1 -0.0096489 -0.00120385 -0.0129919 0.000656 -0.0523955 0.0509296 0.0372036 2650 
3551 1 -0.005293 0.000296341 -0.013215 0.000423 0 -0.011753 0 2650 
1595 1 -0.007474 0.00304034 -0.012756 0.000423 0 -0.011753 0 2650 
2525 1 -0.004063 0.00238234 -0.013231 4.2e-05 0 -0.011753 0 2650 
1774 1 -0.000450543 0.00237131 -0.0132644 0.000423 0.0334231 0.0535311 -0.0530131 2650 
2283 1 -0.000379395 0.00315106 -0.0132871 0.000116 0.0261736 0.0795444 -0.0359083 2650 
2609 1 -0.00886 0.00392234 -0.013248 0.000116 0 -0.011753 0 2650 
2619 1 -0.005851 0.00319834 -0.012854 0.000116 0 -0.011753 0 2650 
3880 1 -0.010277 0.00411434 -0.012913 0.000423 0 -0.011753 0 2650 
3917 1 -0.003984 0.00468334 -0.012703 0.000116 0 -0.011753 0 2650 
2194 1 -0.00269446 0.00456314 -0.0126608 4.2e-05 0.00491046 0.00111596 0.00228026 2650 
2918 1 -0.00757 0.00527334 -0.012948 0.000116 0 -0.011753 0 2650 
2059 1 -0.003583 0.00489234 -0.012756 0.000116 0 -0.011753 0 2650 
2547 1 -0.0101102 0.00639438 -0.0130642 0.000423 -0.0187488 0.0289195 0.0215408 2650 
4078 1 -0.00738952 0.00708582 -0.0128225 0.000423 -0.0196946 -0.00953845 0.00130892 2650 
1427 1 -0.002948 0.00722334 -0.013376 4.2e-05 0 -0.011753 0 2650 
3259 1 -0.00808056 0.00830031 -0.0133756 0.000116 -0.00597746 -0.00895275 0.0028953 2650 
713 1 -0.00600628 0.00824185 -0.0128152 0.000423 -0.0229952 -0.0104665 0.0222494 2650 
1795 1 -0.008775 0.00922234 -0.012959 0.000423 0 -0.011753 0 2650 
1769 1 -0.00512779 0.00911387 -0.0131442 0.000656 -0.011011 -0.0133928 0.00327466 2650 
205 1 -0.000744 0.00993934 -0.01334 0.000116 0 -0.011753 0 2650 
4257 1 -0.0106635 0.0124264 -0.0127382 0.000116 0.0616028 0.00285205 -0.0504011 2650 
3644 1 -0.000733 0.0126103 -0.013392 0.000423 0 -0.011753 0 2650 
1775 1 -0.00822193 0.0126449 -0.0130147 0.000423 -7.29146e-05 -0.011186 -0.000346901 2650 
884 1 -0.00633269 0.0138441 -0.0130707 0.000656 -0.0213431 0.0225291 0.0346991 2650 
728 1 -0.00301393 0.0180527 -0.012765 0.000116 0.0277452 0.106546 0.043675 2650 
1900 1 -0.00758702 0.0266305 -0.0131864 0.000423 0.00650864 0.175596 0.0646267 2650 
3960 1 -0.00869704 -0.00170336 -0.0119295 0.000423 -0.0011096 -0.0310235 -0.0206256 2650 
2166 1 -0.00941484 -0.00201661 -0.011855 0.000116 -0.0143174 -0.0293231 -0.0106889 2650 
545 1 -0.002328 -0.00159266 -0.012432 4.2e-05 0 -0.011753 0 2650 
2819 1 -0.007468 -0.00105866 -0.012046 0.000116 0 -0.011753 0 2650 
2468 1 -0.003167 -0.00121966 -0.012131 0.000423 0 -0.011753 0 2650 
1763 1 -0.001143 -0.000931659 -0.012442 0.000656 0 -0.011753 0 2650 
950 1 -0.010031 -0.000326659 -0.011866 0.000116 0 -0.011753 0 2650 
3191 1 -0.00612489 -0.000709131 -0.011905 0.000656 -0.00833246 0.0061838 -0.01197 2650 
2817 1 -0.00255507 0.000313811 -0.0120658 0.000116 -0.0539328 -0.00567838 -0.0938536 2650 
623 1 -0.00577475 0.00131886 -0.0124304 0.000116 -0.0418007 -0.0241435 -0.0222958 2650 
3201 1 -0.00523331 0.00152398 -0.0122521 0.000423 -0.0306487 -0.0168839 -0.0321676 2650 
1422 1 -0.003881 0.000914341 -0.012349 4.2e-05 0 -0.011753 0 2650 
1799 1 -0.00323652 0.00172881 -0.0120607 0.000423 7.10678e-05 -0.0118308 4.63239e-05 2650 
2957 1 -0.00336115 0.00231606 -0.0122427 4.2e-05 0.0205169 0.0248349 -0.000218849 2650 
3956 1 -0.00898091 0.0025147 -0.0122806 0.000656 -0.000838464 -0.0112695 -0.000254236 2650 
3389 1 -0.010415 0.00318034 -0.012026 0.000116 0 -0.011753 0 2650 
1569 1 -0.00333903 0.00421763 -0.0120269 0.000423 -0.0214929 0.00568835 0.0411045 2650 
411 1 -0.00980499 0.00508996 -0.0120835 0.000116 -0.00787832 -0.00657823 -8.20909e-05 2650 
3826 1 -0.009208 0.00507534 -0.012552 0.000116 0 -0.011753 0 2650 
3316 1 -0.008979 0.00582834 -0.012376 0.000423 0 -0.011753 0 2650 
1261 1 -0.007462 0.00573234 -0.012403 0.000423 0 -0.011753 0 2650 
3362 1 -0.002672 0.00584134 -0.012199 0.000116 0 -0.011753 0 2650 
3446 1 -0.002592 0.00683534 -0.012627 0.000423 0 -0.011753 0 2650 
2913 1 -0.0051998 0.00784016 -0.0121025 0.000116 -0.028239 -0.0119827 -0.0130286 2650 
3030 1 -0.001189 0.00733834 -0.012596 0.000116 0 -0.011753 0 2650 
191 1 -0.011348 0.00865934 -0.012254 0.000116 0 -0.011753 0 2650 
4318 1 -0.00814036 0.00828368 -0.0125776 0.000423 -0.00589465 -0.00768269 0.00318441 2650 
3847 1 -0.00973549 0.00926448 -0.0124049 0.000656 6.67707e-05 -0.0116743 2.1441e-05 2650 
3173 1 -0.004958 0.00946734 -0.012321 4.2e-05 0 -0.011753 0 2650 
1495 1 -0.004483 0.00880634 -0.012591 0.000116 0 -0.011753 0 2650 
1250 1 -0.007399 0.00998534 -0.012448 0.000423 0 -0.011753 0 2650 
2630 1 -0.001036 0.00967534 -0.012074 4.2e-05 0 -0.011753 0 2650 
4002 1 -0.000443 0.00949934 -0.01223 0.000116 0 -0.011753 0 2650 
70 1 -0.0104616 0.0108986 -0.011959 0.000116 0.00881709 0.0274246 0.0240282 2650 
65 1 -0.00977089 0.0108322 -0.0119855 0.000116 -0.0854753 -0.0262945 -0.00799851 2650 
1423 1 -0.00145 0.0111553 -0.012526 4.2e-05 0 -0.011753 0 2650 
963 1 -0.00184288 0.0126309 -0.0118658 0.000116 -0.0512099 -0.0542754 -0.0325787 2650 
1974 1 -0.00702216 0.0133396 -0.0118526 4.2e-05 -0.0917311 0.0247116 0.0427267 2650 
2205 1 -0.00495287 0.0131824 -0.0120095 0.000656 -0.00241752 0.00375043 0.00610124 2650 
1143 1 -0.00138378 0.0135774 -0.0120281 0.000423 0.0070315 0.0110531 -0.00616027 2650 
2250 1 -0.00927428 0.0154294 -0.0119537 0.000423 -0.0795114 0.075595 0.0420437 2650 
85 1 -0.00901393 0.0236694 -0.0122963 0.000116 -0.133393 -0.599583 -0.410525 2650 
3453 1 -0.00760114 0.0358783 -0.0125222 0.000423 0.0494691 0.284608 0.0822627 2650 
3679 1 -0.012092 -0.00288166 -0.011604 0.000116 0 -0.011753 0 2650 
3357 1 -0.00959013 -0.00254952 -0.0110592 0.000116 -0.0135525 -0.140659 -0.167687 2650 
2072 1 -0.009308 -0.00301966 -0.011721 0.000116 0 -0.011753 0 2650 
3505 1 -0.006952 -0.00192366 -0.011235 4.2e-05 0 -0.011753 0 2650 
1487 1 -0.00519121 -0.00189481 -0.0114495 0.000116 -0.0286894 0.0639382 0.0557328 2650 
1022 1 -0.002093 -0.00205366 -0.011454 0.000423 0 -0.011753 0 2650 
2939 1 -0.00960302 -0.00116478 -0.0115634 0.000116 -0.0411394 0.0381719 0.0659172 2650 
440 1 -0.00061 -0.000621659 -0.011485 4.2e-05 0 -0.011753 0 2650 
369 1 -0.0115235 0.000444527 -0.011321 0.000423 0.0722474 -0.0143206 -0.0326868 2650 
4215 1 -0.011184 0.00148734 -0.011524 0.000423 0 -0.011753 0 2650 
3643 1 -0.00596398 0.00114754 -0.0116071 0.000423 -0.0386014 -0.00662447 0.00484329 2650 
2279 1 -0.011345 0.00205034 -0.01145 0.000116 0 -0.011753 0 2650 
2579 1 -0.0087275 0.00167365 -0.0111863 0.000423 -0.000311164 -0.0069809 0.00202215 2650 
3535 1 -9.9e-05 0.00179034 -0.011488 0.000423 0 -0.011753 0 2650 
1063 1 -0.009531 0.00310434 -0.011683 0.000116 0 -0.011753 0 2650 
3894 1 -0.005583 0.00254934 -0.011098 0.000116 0 -0.011753 0 2650 
2922 1 -0.00296574 0.00292409 -0.0116029 0.000116 -0.0492521 -0.0166623 -0.0574868 2650 
3383 1 -0.011681 0.00409934 -0.011229 0.000116 0 -0.011753 0 2650 
1657 1 -0.00935753 0.00440111 -0.0115583 0.000656 -0.0116375 -0.0115716 0.0121112 2650 
3542 1 -0.00368722 0.00443733 -0.011286 0.000423 0.00241856 -0.00915467 -0.000529042 2650 
2294 1 -0.004894 0.00478534 -0.011565 0.000116 0 -0.011753 0 2650 
878 1 -0.003908 0.00526834 -0.011202 4.2e-05 0 -0.011753 0 2650 
708 1 -0.00252624 0.00499303 -0.0114116 0.000423 -0.0031746 -0.00580761 -0.0104884 2650 
1215 1 -0.0105519 0.00625728 -0.0112666 0.000656 -0.0154882 -0.0117534 0.00230174 2650 
2512 1 -0.00990687 0.00582731 -0.0111587 0.000116 0.002514 -0.0160812 -0.0313025 2650 
1822 1 -0.008034 0.00583834 -0.011166 0.000116 0 -0.011753 0 2650 
1758 1 -0.00201 0.00609934 -0.01144 4.2e-05 0 -0.011753 0 2650 
4027 1 -0.003218 0.00723034 -0.011075 0.000116 0 -0.011753 0 2650 
2409 1 -0.002586 0.00716934 -0.011527 4.2e-05 0 -0.011753 0 2650 
2798 1 -0.008755 0.00826934 -0.01131 0.000423 0 -0.011753 0 2650 
949 1 -0.00502754 0.00882357 -0.011617 0.000116 -0.0176455 0.0180502 -0.0430698 2650 
1617 1 -0.00424 0.00915834 -0.011492 0.000116 0 -0.011753 0 2650 
3684 1 -0.00464348 0.00993194 -0.0116981 0.000116 0.00413104 -0.0230128 -0.00941473 2650 
192 1 -0.00265795 0.0100395 -0.011449 0.000116 0.052188 -0.0401332 -0.079726 2650 
4314 1 -0.00922632 0.010948 -0.0118138 0.000423 -0.0792512 -0.0183137 0.0171378 2650 
233 1 -0.00485762 0.0107622 -0.0118412 0.000423 0.00253467 -0.0140185 -0.0192435 2650 
1663 1 -0.00996699 0.0112021 -0.0112431 0.000423 -0.00585048 -0.0195656 0.00569326 2650 
3145 1 -0.006381 0.0116213 -0.011273 0.000116 0 -0.011753 0 2650 
1578 1 -0.0106474 0.0125979 -0.0118311 0.000423 0.00763503 -0.000391995 0.0342555 2650 
976 1 -0.005828 0.0129983 -0.011785 0.000116 0 -0.011753 0 2650 
911 1 -0.0103362 0.0153398 -0.0112107 0.000423 -0.0526708 0.0464536 0.0089698 2650 
3216 1 -0.00154573 0.0154133 -0.0116657 0.000423 -0.0601615 0.128493 -0.0913681 2650 
3784 1 -0.00998232 0.0176349 -0.0113221 0.000116 0.0423878 0.0666065 0.0301123 2650 
2820 1 -0.0680936 -0.00743101 -0.0103781 0.000116 -0.472133 -0.203284 4.91827 2650 
827 1 -0.068088 -0.00787821 -0.0103957 0.000116 -0.376859 -1.00486 4.13872 2650 
333 1 -0.0675024 -0.00539012 -0.0107091 0.000656 -0.864451 -0.100438 5.63102 2650 
4373 1 -0.004239 -0.00265766 -0.010869 4.2e-05 0 -0.011753 0 2650 
3426 1 -0.00105125 -0.00293718 -0.0105139 0.000423 -0.00109119 -0.0119118 0.00171421 2650 
15 1 -0.001892 -0.00226666 -0.010407 0.000423 0 -0.011753 0 2650 