ITEM: TIMESTEP
9005532
ITEM: NUMBER OF ATOMS
4349
ITEM: BOX BOUNDS ff ff ff
-0.15 0.15
-0.15 0.06
-0.15 0.15
ITEM: ATOMS id type x y z radius vx vy vz density 
3351 1 -0.0194981 -0.0449987 -0.0660668 0.000116 -4.90856 1.04201 1.43554 2650 
3812 1 -0.0333777 -0.0623198 -0.0602576 0.000116 -5.82655 -0.99835 3.2123 2650 
2317 1 -0.0352502 -0.0468115 -0.0585554 0.000656 -7.19455 -0.0209665 4.31899 2650 
669 1 -0.0445877 -0.0599402 -0.0517988 0.000656 -5.42495 -0.00701872 4.63327 2650 
106 1 -0.0477172 -0.0524727 -0.0497548 4.2e-05 -5.29905 -0.408165 5.08417 2650 
4035 1 -0.060356 -0.0451315 -0.0331897 0.000116 -3.81966 -0.254121 6.95798 2650 
4316 1 -0.0598556 -0.0455823 -0.0334659 0.000423 -3.63499 -0.0280698 6.47115 2650 
983 1 -0.0610023 -0.0622801 -0.0321544 4.2e-05 -5.09559 0.0111108 9.66749 2650 
51 1 -0.0682224 -0.048569 -0.00671741 0.000423 -0.581143 0.147477 6.71785 2650 
2177 1 -0.0687032 -0.0562281 -0.00498504 0.000116 -0.482239 -0.981726 7.07521 2650 
1856 1 -0.0687261 -0.0534605 -0.00465196 0.000116 -0.362821 0.157298 5.2492 2650 
3219 1 -0.0684227 -0.0547265 0.00461754 0.000423 0.303566 -0.561454 4.03907 2650 
3079 1 -0.0679711 -0.0470023 0.00714918 0.000656 0.786436 0.00920893 7.59522 2650 
3069 1 -0.0683177 -0.0510417 0.00938067 4.2e-05 0.963495 0.522137 7.04901 2650 
1462 1 -0.066217 -0.045229 0.0178388 0.000423 1.81608 -0.42979 6.6224 2650 
3409 1 -0.0642528 -0.0498376 0.0232825 0.000656 2.48186 0.0260087 7.08365 2650 
3391 1 -0.0624089 -0.0518268 0.0293325 4.2e-05 2.57411 0.328577 5.50463 2650 
3570 1 -0.0576397 -0.0604865 0.0377179 0.000116 4.3246 0.228701 6.61132 2650 
3314 1 -0.0573596 -0.0456866 0.0375881 0.000423 3.4996 0.0819986 5.37643 2650 
3192 1 -0.0562907 -0.0454165 0.0387626 0.000656 3.64844 0.187247 5.34092 2650 
691 1 -0.0534588 -0.049431 0.0429164 0.000423 4.52213 -0.00497121 5.53808 2650 
753 1 -0.0517164 -0.0479403 0.045499 0.000116 4.45585 -1.09099 5.08745 2650 
4288 1 -0.0502181 -0.0485761 0.0467027 0.000423 4.70701 0.100945 5.06899 2650 
2832 1 -0.0459572 -0.0494851 0.0513127 0.000116 3.62783 -0.914467 3.25625 2650 
4376 1 -0.0237725 -0.0523643 0.0647308 4.2e-05 6.8148 1.14516 2.50479 2650 
3385 1 -0.000707405 -0.0281004 -0.0688803 0.000116 -7.39698 -0.176686 0.0775072 2650 
204 1 -0.00123562 -0.0183024 -0.0688727 0.000116 -9.63511 0.380804 0.171429 2650 
1606 1 -0.000368019 -0.00792125 -0.0688831 0.000116 -6.45415 -0.367064 0.0440068 2650 
1946 1 -0.00480294 -0.00626265 -0.0687161 0.000116 -3.24789 -0.126866 0.244221 2650 
1878 1 -0.00327481 -0.0411016 -0.0682679 0.000656 -7.37642 -0.099236 0.358751 2650 
3650 1 -0.0077025 -0.0354423 -0.068137 0.000423 -6.91712 -0.140556 0.759186 2650 
1030 1 -0.00318819 -0.033556 -0.0685034 0.000423 -6.17751 -0.083393 0.285782 2650 
549 1 -0.0113659 -0.032897 -0.0680096 4.2e-05 -6.82289 0.725865 1.08677 2650 
3946 1 -0.0100055 -0.0315767 -0.0682046 4.2e-05 -6.82843 0.22322 1.05478 2650 
4212 1 -0.00395884 -0.0319153 -0.0684631 0.000423 -6.21859 -0.496743 0.348753 2650 
2670 1 -0.00170239 -0.0311125 -0.0685573 0.000423 -6.70479 0.00308561 0.152196 2650 
1712 1 -0.0102073 -0.0287324 -0.0680902 0.000116 -5.53646 -0.644526 0.880948 2650 
2081 1 -0.00762918 -0.0290185 -0.0685208 4.2e-05 -6.63852 -0.204016 0.649642 2650 
1231 1 -0.00713817 -0.0258714 -0.068204 0.000423 -5.05514 -0.432034 0.446946 2650 
245 1 -0.0092427 -0.0238298 -0.0679515 0.000423 -7.10471 -0.048716 0.942347 2650 
2162 1 -0.00705758 -0.0238407 -0.0685218 0.000116 -6.5492 0.176101 0.677345 2650 
1020 1 -0.0057503 -0.0235479 -0.0683362 0.000423 -6.18917 0.396654 0.535312 2650 
1224 1 -0.00826355 -0.021099 -0.0680759 0.000423 -5.94345 0.103472 0.701715 2650 
2938 1 -0.00962263 -0.0166306 -0.068204 0.000116 -5.63749 -0.221708 0.743795 2650 
1916 1 -0.00499841 -0.015553 -0.0683951 0.000423 -6.32445 0.179342 0.46251 2650 
2538 1 -0.00284787 -0.0128865 -0.0682874 0.000656 -5.60001 0.0609001 0.209085 2650 
3817 1 -0.00777365 -0.0107562 -0.068427 0.000116 -5.60503 0.823801 0.536801 2650 
1613 1 -0.00890405 -0.0099475 -0.0682766 0.000116 -3.9585 -0.89104 0.498514 2650 
3034 1 -0.00726434 -0.00870273 -0.0684948 0.000116 -5.48996 -0.0492431 0.440073 2650 
715 1 -0.00802432 -0.00624098 -0.0680842 0.000423 -3.51138 -0.0914736 0.266786 2650 
1054 1 -0.00923254 -0.00340162 -0.0682621 0.000116 -5.88573 -0.0286708 0.908758 2650 
3572 1 -0.0109604 -0.00215796 -0.0680044 0.000116 -5.71304 0.533423 0.922572 2650 
4164 1 -0.00945391 -0.00197102 -0.0683035 4.2e-05 -4.69893 -0.187018 0.625935 2650 
4023 1 -0.0054902 -0.00218228 -0.0686645 0.000116 -4.89147 -0.144878 0.385085 2650 
2192 1 -0.00956007 -0.00116207 -0.0682877 4.2e-05 -3.31709 0.0272118 0.461845 2650 
1841 1 -0.0133071 -0.0396327 -0.067586 0.000116 -6.35838 -0.273094 1.26482 2650 
21 1 -0.0108678 -0.0337043 -0.0677116 0.000423 -6.20513 0.107864 1.02861 2650 
3547 1 -0.0109833 -0.031611 -0.0676912 0.000423 -6.95446 0.00210029 1.24178 2650 
2858 1 -0.0119567 -0.0302757 -0.067287 0.000656 -7.10879 0.0358456 1.25258 2650 
4017 1 -0.0120655 -0.0296255 -0.067805 0.000116 -6.60973 0.593074 0.98523 2650 
1058 1 -0.0148608 -0.0257257 -0.0672586 0.000116 -5.96035 0.405003 1.31314 2650 
2337 1 -0.0133744 -0.0214884 -0.0672607 0.000423 -6.13863 -0.140788 1.26119 2650 
392 1 -0.0129321 -0.0165963 -0.0676577 0.000116 -7.71837 0.678563 1.46574 2650 
1792 1 -0.0111714 -0.010981 -0.0676596 0.000423 -5.77809 -0.00673542 0.863883 2650 
293 1 -0.011734 -0.0102548 -0.0678712 0.000116 -5.79459 0.0850802 0.961356 2650 
2396 1 -0.0118307 -0.000115985 -0.0678604 0.000116 -4.43535 -0.00118644 0.77428 2650 
1206 1 -0.0179136 -0.0394574 -0.0665899 4.2e-05 -5.41238 0.493254 1.45595 2650 
2651 1 -0.0155365 -0.0302822 -0.0667913 0.000423 -6.28754 -0.100876 1.44886 2650 
2821 1 -0.0156425 -0.0139186 -0.0670832 0.000116 -6.02238 0.598724 1.40328 2650 
2012 1 -0.0173957 -0.0112066 -0.0663354 0.000423 -5.02449 -0.316641 1.30762 2650 
1410 1 -0.018295 -0.00976639 -0.066411 0.000116 -4.97018 -0.0681523 1.38717 2650 
2480 1 -0.0167514 -0.00739015 -0.0668151 0.000116 -4.92687 -0.468688 1.23006 2650 
502 1 -0.016876 -0.00228742 -0.0667842 0.000116 -5.58647 0.415896 1.42397 2650 
4074 1 -0.0142528 -0.000902435 -0.0670801 0.000423 -4.90756 -0.0486525 1.07739 2650 
2816 1 -0.0207581 -0.0251086 -0.0656818 0.000116 -6.08992 0.535837 1.92089 2650 
3549 1 -0.0176616 -0.0229 -0.0662648 0.000423 -6.27638 0.231687 1.67006 2650 
1474 1 -0.0189432 -0.021796 -0.0659096 0.000423 -6.49945 -0.183183 1.8643 2650 
4110 1 -0.0187052 -0.0139058 -0.0659777 0.000423 -5.156 -0.488505 1.47131 2650 
1863 1 -0.0205901 -0.00365382 -0.0658119 4.2e-05 -4.9424 -0.199682 1.55046 2650 
1721 1 -0.0216656 -0.0349462 -0.0653886 0.000116 -5.94167 -0.184981 1.97717 2650 
3862 1 -0.0217396 -0.0213381 -0.0650413 0.000423 -6.63668 -0.034415 2.18966 2650 
3725 1 -0.0234097 -0.00681127 -0.0648631 4.2e-05 -3.79127 -0.0917244 1.36023 2650 
4380 1 -0.0227664 -0.000409606 -0.0650912 4.2e-05 -5.44832 -0.113031 1.90675 2650 
2803 1 -0.0237555 -0.0172651 -0.064658 0.000116 -5.87721 -0.307302 2.16756 2650 
3603 1 -0.0252043 -0.0042997 -0.064107 0.000116 -5.66952 -0.108098 2.23544 2650 
4100 1 -0.0244791 -0.00259012 -0.0640598 0.000423 -5.39228 0.168254 2.05636 2650 
4249 1 -0.0249298 -0.00196305 -0.0642145 0.000116 -5.44101 0.298349 2.1027 2650 
4303 1 -0.0257852 -0.0171449 -0.0635453 0.000423 -6.0933 0.24854 2.48105 2650 
1333 1 -0.026921 -0.0209495 -0.0630729 0.000423 -6.05543 0.0276596 2.59629 2650 
1094 1 -0.0280568 -0.0120443 -0.0629921 4.2e-05 -3.275 -0.182628 1.4641 2650 
1177 1 -0.0290781 -0.00229461 -0.0624455 0.000116 -5.40883 -0.177596 2.51552 2650 
1290 1 -0.0298083 -0.0164348 -0.0620991 0.000116 -4.62324 0.396247 2.21373 2650 
3348 1 -0.030453 -0.00541223 -0.061781 0.000116 -4.5241 -0.357141 2.16302 2650 
991 1 -0.0303631 -0.0327006 -0.0612167 0.000656 -6.17799 -0.0614473 2.98227 2650 
3358 1 -0.0323426 -0.0244892 -0.0607989 0.000116 -5.58884 0.455325 2.98256 2650 
524 1 -0.0309291 -0.014202 -0.0615277 0.000116 -4.03158 0.168401 1.8821 2650 
868 1 -0.0321399 -0.0125672 -0.0608881 0.000116 -5.65849 0.786995 2.98258 2650 
1805 1 -0.031935 -0.0338546 -0.0606575 0.000423 -5.76469 0.184937 3.05151 2650 
1341 1 -0.0331721 -0.0256734 -0.0600061 0.000423 -5.46535 -0.0946356 3.10071 2650 
3887 1 -0.0326387 -0.0248609 -0.0602932 0.000423 -5.56325 0.0137144 3.06005 2650 
791 1 -0.0331127 -0.0151415 -0.0600375 0.000423 -5.8769 0.265 3.33155 2650 
1944 1 -0.0348269 -0.039782 -0.0594299 0.000116 -5.35392 -0.25225 3.12431 2650 
1514 1 -0.0343415 -0.0183052 -0.0597124 0.000116 -6.99145 0.831796 4.03056 2650 
4306 1 -0.0339271 -0.0153908 -0.0595924 0.000423 -5.82373 0.273416 3.25268 2650 
789 1 -0.0340269 -0.00813966 -0.0595306 0.000423 -4.36991 -0.313968 2.45825 2650 
1047 1 -0.0342074 -0.0052435 -0.0597839 0.000116 -4.18801 0.382395 2.34315 2650 
2708 1 -0.0358323 -0.0316331 -0.0588285 0.000116 -5.10997 0.709921 3.06023 2650 
455 1 -0.0352515 -0.0282254 -0.0588194 0.000423 -6.04711 -0.0915616 3.65511 2650 
2224 1 -0.0356579 -0.0222668 -0.0585783 0.000423 -6.01707 0.187734 3.65689 2650 
3422 1 -0.0354992 -0.0133629 -0.0586739 0.000423 -5.82051 -0.134439 3.48549 2650 
2148 1 -0.037547 -0.034793 -0.0577484 0.000116 -5.94653 -0.0615492 3.8974 2650 
2641 1 -0.0365838 -0.0271029 -0.0577298 0.000656 -6.11826 -0.21981 3.85901 2650 
2501 1 -0.0376422 -0.0148044 -0.0576887 0.000116 -3.42678 0.0258374 2.28477 2650 
1227 1 -0.0369979 -0.0141054 -0.0577378 0.000423 -5.58515 -0.101251 3.58178 2650 
4006 1 -0.037166 -0.00653506 -0.0579913 0.000116 -5.09927 0.272749 3.27142 2650 
688 1 -0.0382555 -0.025363 -0.0569155 0.000423 -5.24529 0.218159 3.50421 2650 
2123 1 -0.0379507 -0.0226442 -0.057119 0.000423 -5.91056 -0.002121 3.96147 2650 
2248 1 -0.037713 -0.0192906 -0.0572768 0.000423 -5.91998 0.191494 3.8995 2650 
2143 1 -0.0381431 -0.0173576 -0.056991 0.000423 -3.45215 -0.220181 2.35711 2650 
311 1 -0.0395268 -0.027555 -0.0564153 0.000116 -4.61681 -0.476612 3.20517 2650 
4293 1 -0.0385041 -0.0206845 -0.0567495 0.000423 -6.20725 0.00224065 4.1973 2650 
2018 1 -0.0405493 -0.036482 -0.0553051 0.000423 -5.39794 -0.722139 3.96566 2650 
1670 1 -0.0405856 -0.0259518 -0.055279 0.000423 -5.31531 -0.140115 3.9436 2650 
1164 1 -0.0409572 -0.0135082 -0.0553855 0.000116 -4.86013 0.193875 3.61871 2650 
1008 1 -0.0397659 -0.0121519 -0.0558722 0.000423 -3.72511 -0.0505561 2.70799 2650 
1934 1 -0.0405233 -0.00377933 -0.0557035 0.000116 -5.26193 0.270582 3.85859 2650 
169 1 -0.0413338 -0.0232641 -0.0551043 0.000116 -4.95615 0.486676 3.70822 2650 
1208 1 -0.0415289 -0.0134288 -0.0550509 4.2e-05 -3.95059 -0.288565 2.94727 2650 
2714 1 -0.0420472 -0.0128131 -0.0545631 0.000116 -3.34505 -0.228088 2.55485 2650 
4019 1 -0.0412266 -0.0129571 -0.0551857 0.000116 -3.73481 -0.154118 2.79797 2650 
3058 1 -0.0176734 -0.00433723 -0.0552097 0.000116 -2.72786 -0.114933 -8.53851 2650 
2873 1 -0.0424076 -0.0271902 -0.0538944 0.000423 -5.24062 -0.142289 4.15551 2650 
160 1 -0.0421225 -0.0249558 -0.0541167 0.000423 -5.28553 -0.00235233 4.11135 2650 
1509 1 -0.0426239 -0.0204634 -0.0541136 0.000116 -5.15494 0.541859 4.06369 2650 
2829 1 -0.0426079 -0.0162811 -0.0541253 0.000116 -5.2015 0.901027 4.08473 2650 
1572 1 -0.0428862 -0.0247843 -0.0535133 0.000423 -3.9663 -0.290569 3.20353 2650 
3534 1 -0.0440108 -0.0425739 -0.0525926 0.000423 -7.24685 -0.276152 6.03974 2650 
1901 1 -0.0445621 -0.0178688 -0.0521266 0.000423 -4.96196 -0.0868712 4.22634 2650 
1393 1 -0.0449379 -0.0108531 -0.0522076 0.000116 -4.48876 1.03187 3.88008 2650 
1320 1 -0.0458138 -0.0318735 -0.0515393 4.2e-05 -6.19001 -0.128441 5.50129 2650 
892 1 -0.0445602 -0.027635 -0.0518235 0.000656 -5.64013 0.109687 4.83128 2650 
158 1 -0.0448616 -0.020465 -0.0518692 0.000423 -4.85079 -0.266016 4.20526 2650 
55 1 -0.0452504 -0.018187 -0.0515295 0.000423 -4.87386 -0.149168 4.26384 2650 
1585 1 -0.0447779 -0.0187885 -0.0519406 0.000423 -4.89125 -0.11766 4.21543 2650 
3282 1 -0.045721 -0.00545569 -0.0516216 4.2e-05 -4.40921 0.307367 3.91126 2650 
4307 1 -0.0458687 -0.0384595 -0.0509806 0.000423 -5.34494 -0.104748 4.80638 2650 
1865 1 -0.0468746 -0.0297181 -0.0505764 4.2e-05 -5.48898 -0.667338 5.07879 2650 
1132 1 -0.0465835 -0.0408618 -0.0503284 0.000423 -5.25547 -0.213649 4.85594 2650 
2970 1 -0.0461702 -0.0398186 -0.0503944 0.000656 -5.60474 0.098784 5.10892 2650 
2139 1 -0.0467337 -0.0329347 -0.0501885 0.000423 -5.06368 -0.122352 4.69302 2650 
334 1 -0.0461691 -0.0219098 -0.050394 0.000656 -5.00495 -0.0708578 4.55278 2650 
2700 1 -0.0474092 -0.0193765 -0.0499738 0.000116 -7.25475 0.121373 6.88207 2650 
917 1 -0.0471654 -0.0170444 -0.049783 0.000423 -4.6404 0.084403 4.38985 2650 
333 1 -0.0469255 -0.00732585 -0.0496924 0.000656 -4.72339 0.0082351 4.43077 2650 
4038 1 -0.0478468 -0.0343056 -0.0495546 0.000116 -5.04287 -0.506696 4.8724 2650 
2560 1 -0.0475107 -0.0280141 -0.0494537 0.000423 -4.98345 0.127316 4.76463 2650 
3783 1 -0.0474711 -0.0190216 -0.0494918 0.000423 -4.26422 0.366588 4.07494 2650 
1072 1 -0.0479744 -0.017222 -0.0494312 0.000116 -3.73138 0.235794 3.61023 2650 
3399 1 -0.0478426 -0.0116314 -0.0496616 4.2e-05 -4.49541 0.239141 4.31946 2650 
821 1 -0.0483582 -0.0300718 -0.0486253 0.000423 -4.85098 0.174493 4.81577 2650 
886 1 -0.0479718 -0.0197286 -0.0486804 0.000656 -3.91113 -0.341304 3.8741 2650 
1647 1 -0.0490966 -0.00670924 -0.0484206 4.2e-05 -5.35486 -0.151283 5.41931 2650 
2741 1 -0.049331 -0.00486503 -0.0481815 4.2e-05 -3.57325 -0.00527576 3.64234 2650 
3834 1 -0.0500857 -0.0358598 -0.0473979 4.2e-05 -4.96502 0.657676 5.24178 2650 
3815 1 -0.0500393 -0.0172221 -0.0473279 0.000116 -4.03245 0.0677907 4.23462 2650 
15 1 -0.0492819 -0.00341326 -0.047688 0.000423 -4.6523 -0.239971 4.71596 2650 
3536 1 -0.0499948 -0.0296769 -0.0469408 0.000423 -4.18723 -0.488773 4.45427 2650 
3652 1 -0.0497324 -0.0255632 -0.0472188 0.000423 -5.03722 -0.0679698 5.2826 2650 
733 1 -0.0506449 -0.0140956 -0.046656 0.000116 -4.62328 0.431212 4.9919 2650 
3759 1 -0.0508349 -0.0400144 -0.0460296 0.000423 -4.69522 0.0902743 5.18764 2650 
2102 1 -0.0507481 -0.0308397 -0.0457808 0.000656 -4.74133 -0.145064 5.23812 2650 
2131 1 -0.0509838 -0.0297467 -0.0458648 0.000423 -4.53133 -0.0307154 5.02535 2650 
3743 1 -0.0510112 -0.0256009 -0.0458346 0.000423 -4.7169 0.025602 5.26091 2650 
95 1 -0.0513617 -0.0199135 -0.0459017 0.000116 -3.85031 -0.144113 4.3175 2650 
3386 1 -0.0520824 -0.0353543 -0.0450827 0.000116 -4.54857 0.541117 5.23533 2650 
2827 1 -0.0517529 -0.00446052 -0.0454507 0.000116 -2.36764 0.0779005 2.7365 2650 
4084 1 -0.0521066 -0.0215355 -0.0445847 0.000423 -4.75279 -0.132886 5.54837 2650 
3640 1 -0.0410562 -0.0106106 -0.0449883 0.000423 -6.21221 -0.549599 -6.82383 2650 
1825 1 -0.052771 -0.000704406 -0.0442735 0.000116 -4.37279 -0.0135828 5.20219 2650 
2618 1 -0.0534359 -0.0261347 -0.04347 0.000116 -4.10856 0.146194 5.06823 2650 
2074 1 -0.0532191 -0.00562505 -0.0437212 0.000116 -2.61825 -0.110165 3.26709 2650 
2667 1 -0.0533838 -0.0340532 -0.0430486 0.000423 -4.09373 -0.0770086 5.10586 2650 
3748 1 -0.0536272 -0.0222331 -0.0427436 0.000423 -3.04858 -0.286648 3.81835 2650 
2530 1 -0.0528399 -0.0143657 -0.0433357 0.000656 -2.09832 -0.513216 2.71319 2650 
2291 1 -0.0542436 -0.025072 -0.0424571 0.000116 -4.97847 -0.76562 6.36373 2650 
3139 1 -0.0543187 -0.0115494 -0.0423582 0.000116 -4.43077 1.02057 5.68367 2650 
1169 1 -0.0549872 -0.016231 -0.04149 0.000116 -3.15743 0.532972 4.13576 2650 
3350 1 -0.0548882 -0.00503919 -0.0416193 0.000116 -2.7929 0.111925 3.73965 2650 
2064 1 -0.0555402 -0.0244462 -0.0407464 0.000116 -4.226 0.0835218 5.75667 2650 
1130 1 -0.0550882 -0.0235522 -0.0408436 0.000423 -3.19497 -0.353211 4.31039 2650 
186 1 -0.0563719 -0.00719013 -0.0395878 0.000116 -2.1904 -0.57744 3.14462 2650 
1051 1 -0.0569539 -0.0257043 -0.0387458 0.000116 -3.56957 0.329871 5.25588 2650 
3875 1 -0.056414 -0.0193669 -0.0389923 0.000423 -4.09856 0.114707 5.9114 2650 
2211 1 -0.056641 -0.0292646 -0.03825 0.000656 -4.10253 0.0782483 6.05198 2650 
1256 1 -0.0572793 -0.0406608 -0.0377093 0.000423 -3.3918 0.0667849 5.17161 2650 
71 1 -0.0577227 -0.0276676 -0.0375925 0.000116 -3.64583 -0.76544 5.65575 2650 
3037 1 -0.0575783 -0.00528868 -0.0378126 0.000116 -2.65919 0.147423 4.0978 2650 
1596 1 -0.0576959 -0.00011601 -0.0376322 0.000116 -3.05375 -0.00116472 4.72878 2650 
2920 1 -0.0583645 -0.0266035 -0.0365812 0.000116 -3.97334 0.241742 6.32482 2650 
3444 1 -0.0578019 -0.0249293 -0.0369013 0.000423 -3.58555 -0.0372876 5.59414 2650 
2527 1 -0.0584975 -4.20946e-05 -0.036513 4.2e-05 -2.26594 -0.000973945 3.63836 2650 
2532 1 -0.0582732 -0.027346 -0.0357122 0.000656 -3.4994 -0.0746561 5.79739 2650 
4260 1 -0.0586488 -0.00267336 -0.0361293 0.000116 -3.0099 -0.13321 4.89403 2650 
1046 1 -0.0589692 -0.000115999 -0.0356039 0.000116 -2.21977 -0.00113968 3.6983 2650 
330 1 -0.0592091 -0.000528099 -0.0353472 4.2e-05 -2.77381 -0.156267 4.65667 2650 
3156 1 -0.059796 -0.0357396 -0.0341916 0.000116 -3.3637 0.561344 5.78043 2650 
2210 1 -0.0593364 -0.0303902 -0.0339118 0.000656 -3.23779 0.0109493 5.6032 2650 
2606 1 -0.0596343 -0.0208592 -0.0344782 0.000116 -3.21621 0.146504 5.55332 2650 
3707 1 -0.0597823 -0.00775155 -0.0342213 0.000116 -2.05065 -0.115651 3.55422 2650 
3936 1 -0.0600034 -0.00169986 -0.0339819 4.2e-05 -3.27302 0.955755 5.78093 2650 
2768 1 -0.059507 -0.000915072 -0.034085 0.000423 -2.81442 0.01618 4.9093 2650 
4312 1 -0.0598296 -0.0233268 -0.0335141 0.000423 -3.28578 0.148372 5.82889 2650 
1055 1 -0.0601491 -0.0109918 -0.0335725 0.000116 -1.78565 -0.688892 3.19253 2650 
505 1 -0.0604469 -0.00249865 -0.0330325 0.000116 -2.04205 -0.130174 3.77685 2650 
1463 1 -0.0605754 -0.0386057 -0.0321433 0.000423 -3.00504 -0.0737778 5.62849 2650 
42 1 -0.0613246 -0.025859 -0.0306597 0.000423 -2.75638 0.226688 5.506 2650 
4025 1 -0.0620017 -0.022826 -0.0299948 0.000116 -2.96857 -0.386844 6.12296 2650 
1050 1 -0.0618715 -0.00905975 -0.0302801 0.000116 -2.38519 0.0398164 4.8857 2650 
2451 1 -3.99562e-05 -0.0228093 -0.0685776 0.000423 -6.21996 0.371303 0.000499851 2650 
3393 1 -0.0621225 -0.0135202 -0.0299328 4.2e-05 -1.44456 -0.402665 2.93519 2650 
19 1 -0.0624182 -0.0361871 -0.0284031 0.000423 -2.91951 -0.113213 6.40979 2650 
3140 1 -0.0631245 -0.0298641 -0.0275738 0.000116 -2.81503 0.448516 6.42667 2650 
1377 1 -0.0634613 -0.0134608 -0.0267884 0.000116 -2.21247 -0.569993 5.26796 2650 
2465 1 -0.0632337 -0.034896 -0.0265396 0.000423 -2.76103 -0.00250092 6.5876 2650 
2186 1 -0.0637871 -0.0119796 -0.0260044 0.000116 -1.75959 -0.331796 4.26489 2650 
3313 1 -0.0635184 -0.0383225 -0.0258529 0.000423 -2.59279 -0.0463506 6.39205 2650 
2271 1 -0.0639257 -0.0341526 -0.0256612 0.000116 -2.53453 0.101991 6.30759 2650 
1380 1 -0.0640317 -0.0277024 -0.0253958 0.000116 -2.3286 0.441033 5.88076 2650 
4254 1 -0.0637982 -0.00543314 -0.0259758 0.000116 -1.78282 0.267096 4.42648 2650 
693 1 -0.0638022 -0.0355906 -0.0251444 0.000423 -2.49825 -0.173267 6.32133 2650 
2515 1 -0.0646851 -0.0228669 -0.0236813 0.000116 -2.15312 0.476921 5.90375 2650 
1544 1 -0.0644137 -0.0328309 -0.022848 0.000656 -2.42646 -0.0243131 6.9088 2650 
2091 1 -0.064679 -0.0433645 -0.0220851 0.000656 -2.35657 -0.146191 7.00482 2650 
649 1 -0.0651257 -0.0214837 -0.0224421 0.000116 -1.59957 0.266808 4.64597 2650 
3828 1 -0.0651642 -0.0110593 -0.0225583 4.2e-05 -1.6516 -0.178628 4.78649 2650 
152 1 -0.0650283 -0.0379914 -0.0217775 0.000423 -2.32223 0.25923 6.93748 2650 
747 1 -0.0653343 -0.0371118 -0.0218273 0.000116 -2.37407 -0.0557653 7.08729 2650 
1687 1 -0.0649776 -0.0327029 -0.0219296 0.000423 -2.34816 -0.0807478 6.98079 2650 
2116 1 -0.0652179 -0.015586 -0.0212044 0.000423 -1.37615 -0.307212 4.14465 2650 
203 1 -0.0659508 -0.00714607 -0.0198883 0.000116 -0.958064 -0.156541 3.16396 2650 
198 1 -0.0662312 -0.0411434 -0.0189338 0.000116 -2.68154 0.255949 9.3781 2650 
2681 1 -0.0657284 -0.0208376 -0.0195633 0.000423 -1.85853 0.0205909 6.29056 2650 
468 1 -0.0660892 -0.0360371 -0.0183095 0.000423 -1.9439 0.157145 6.95174 2650 
3357 1 -0.0665705 -0.0177602 -0.0177013 0.000116 -1.40295 -0.733758 5.25395 2650 
2937 1 -0.0665825 -0.012167 -0.0176569 0.000116 -1.5727 0.952398 5.92867 2650 
1119 1 -0.0662348 -0.00788347 -0.0177757 0.000423 -1.19605 -0.19646 4.44162 2650 
1076 1 -0.0665447 -0.0052258 -0.0177997 0.000116 -1.18419 0.263309 4.36854 2650 
3090 1 -0.0664882 -0.0264592 -0.0168002 0.000423 -1.70212 0.222829 6.78351 2650 
606 1 -0.000183 0.00195535 -0.016592 0.000116 0 -0.011753 0 2650 
2520 1 -0.000382004 0.00490223 -0.0167482 4.2e-05 0.00271487 -0.00197792 -0.0154802 2650 
66 1 -6.41492e-05 0.0344671 -0.0168585 0.000116 -0.222399 -0.0113333 -0.0129698 2650 
4308 1 -0.066732 -0.0419921 -0.0158038 0.000423 -1.59319 -0.32776 6.74573 2650 
2172 1 -0.00176601 -0.00124233 -0.0165152 0.000116 0.0682862 0.00746542 -0.00852403 2650 
30 1 -0.00138588 -0.00098708 -0.0159081 0.000423 -0.0136125 -0.0214967 0.00834717 2650 
2013 1 -0.00291271 0.00297452 -0.0159558 0.000423 -0.00154235 0.00221798 0.00156406 2650 
2301 1 -0.00427334 0.00379116 -0.0163154 4.2e-05 -0.00116259 -0.0070103 0.00459775 2650 
1679 1 -0.00400981 0.00403892 -0.0159172 0.000423 -0.00453172 0.0157125 0.00260684 2650 
2283 1 -0.00352376 0.00395454 -0.0164241 0.000116 -0.00010552 0.00956354 0.000789399 2650 
1611 1 -0.00452574 0.00521807 -0.0158241 0.000116 0.0134772 -0.0209987 -0.0751807 2650 
3121 1 -0.000207971 0.00519322 -0.0161966 0.000423 0.0292403 0.00123583 8.703e-05 2650 
978 1 -0.00320489 0.00646165 -0.0163331 0.000116 0.0180122 -0.00353228 -0.00159853 2650 
3934 1 -0.001977 0.00671735 -0.016218 0.000116 0 -0.011753 0 2650 
3177 1 -0.000247138 0.00865869 -0.0160081 4.2e-05 0.00917698 -0.00185525 -0.00666376 2650 
1483 1 -0.00041957 0.0098252 -0.0161073 0.000423 -0.00134867 0.0112238 -0.0085204 2650 
3007 1 -0.00250484 0.0109198 -0.0160533 0.000423 -0.00351627 -0.00337698 0.014455 2650 
371 1 -0.000526526 0.010835 -0.0161866 0.000423 0.0024809 0.0249977 -0.0257035 2650 
188 1 -0.00222362 0.0121006 -0.0163929 0.000116 -0.0148612 0.0228045 0.00418427 2650 
2713 1 -0.000726445 0.0136259 -0.0162401 0.000116 0.00037122 0.035974 0.00535071 2650 
2497 1 -0.00554967 0.0239361 -0.0158511 0.000116 0.288973 0.100779 -0.0719928 2650 
3395 1 -0.00454378 0.0254241 -0.0162619 4.2e-05 -0.340151 -0.195356 0.142773 2650 
2084 1 -0.00438871 0.0332462 -0.0161864 4.2e-05 0.335 0.103655 -0.0828045 2650 
2021 1 -0.00345704 0.0529108 -0.0160709 0.000423 0.161017 -0.0932862 -0.0357176 2650 
631 1 -0.0670819 -0.0092729 -0.0156542 0.000116 -0.923604 -0.117932 3.75361 2650 
736 1 -0.00667666 -0.000678016 -0.0150884 0.000116 -0.0307431 -0.0170391 0.0144389 2650 
2399 1 -0.002418 0.00216935 -0.015541 0.000116 0 -0.011753 0 2650 
3637 1 -0.00498095 0.00346768 -0.0156899 0.000423 -0.0121297 0.0118194 -0.00377228 2650 
4227 1 -0.000526492 0.00485371 -0.0155106 0.000116 0.00143204 -0.0228975 -0.0290312 2650 
2438 1 -0.00593832 0.00726484 -0.015075 0.000423 -0.00468347 -0.000292455 -0.00123863 2650 
3830 1 -0.006879 0.00826935 -0.015411 4.2e-05 0 -0.011753 0 2650 
233 1 -0.00402002 0.00908092 -0.0150304 0.000423 0.0114684 -0.00558491 0.0116559 2650 
289 1 -0.00302429 0.00972326 -0.0152614 0.000116 -0.00850769 0.000708308 0.0302001 2650 
2969 1 -0.00221409 0.0100306 -0.0150951 0.000656 -0.00775713 0.0181674 -1.8219e-05 2650 
938 1 -0.00145388 0.00989663 -0.0156346 0.000116 -0.00119823 0.000558801 -0.00633771 2650 
3500 1 -0.00238539 0.0107209 -0.0153748 4.2e-05 -0.0454796 -0.00333034 0.0313479 2650 
2793 1 -0.000903508 0.0107693 -0.0152347 0.000423 -0.0129328 0.063764 0.00213141 2650 
70 1 -0.00595576 0.0111823 -0.01516 0.000116 0.0420474 0.0335815 -0.0676972 2650 
2182 1 -0.00109509 0.0112465 -0.0150624 0.000116 -0.0452923 0.0708519 -0.0266197 2650 
3644 1 -0.00116012 0.0129666 -0.0156178 0.000423 -0.000399523 0.00418678 0.0157329 2650 
2924 1 -0.00597716 0.0146802 -0.0156237 0.000116 -0.0500795 0.0331408 0.0243033 2650 
2466 1 -0.00677754 0.0206303 -0.0151002 0.000423 0.048327 0.0396991 -0.0547289 2650 
2585 1 -0.000443926 0.0227603 -0.0154283 0.000116 -0.0221426 0.0759057 0.0070692 2650 
4010 1 -0.00652032 0.0407607 -0.015516 0.000116 -0.0880314 0.0972602 0.0365275 2650 
3431 1 -0.0669365 -0.0312688 -0.0149068 0.000423 -1.41991 0.0911145 6.46033 2650 
4097 1 -0.00769432 -0.00378863 -0.0147062 0.000423 -0.158948 -0.192622 -0.520374 2650 
4244 1 -0.000560987 -0.00254814 -0.0149625 0.000116 -0.0436806 -0.00994679 0.0125723 2650 
1053 1 -0.007469 -0.00167265 -0.014946 0.000116 0 -0.011753 0 2650 
3599 1 -0.00155678 -0.00131033 -0.0142939 0.000116 0.00758272 -0.00512374 -0.0536854 2650 
509 1 -0.00753509 -0.0003334 -0.0148966 0.000116 -0.00480979 -0.0076817 0.0108723 2650 
1991 1 -0.00721445 0.00030939 -0.0143483 0.000656 -0.019376 -0.00203791 0.00870126 2650 
3239 1 -0.0060161 0.00119803 -0.014442 0.000116 -0.0248133 -0.00752354 0.0120924 2650 
857 1 -0.00354493 0.00216407 -0.0149155 0.000116 -0.0623021 0.0193526 0.00200378 2650 
3365 1 -0.002315 0.00459535 -0.014552 0.000116 0 -0.011753 0 2650 
1192 1 -0.00683545 0.00545505 -0.0143953 0.000116 -0.0160738 0.0171838 -0.0228619 2650 
1388 1 -0.00496806 0.00543172 -0.0142199 0.000116 -0.039288 0.0021603 0.0169103 2650 
2344 1 -0.000333137 0.00489731 -0.0144636 0.000423 0.00575909 -0.0231993 -0.0217047 2650 
581 1 -0.00562753 0.00803938 -0.0145599 0.000423 0.000441693 0.00100922 0.00165067 2650 
2092 1 -0.00668006 0.00917338 -0.0143495 0.000656 -0.00167296 0.00263094 0.0238503 2650 
86 1 -0.00378036 0.0101071 -0.0149851 0.000116 -0.0196067 0.0126222 0.000798653 2650 
2781 1 -0.00605721 0.0106184 -0.0145523 0.000423 -0.00287998 0.011096 -0.0317373 2650 
1228 1 -0.00170578 0.0117353 -0.01496 0.000423 -0.0026547 0.0243513 0.000515369 2650 
3163 1 -0.00845108 0.0128433 -0.0144609 0.000116 -0.0370466 0.0283549 -0.0433006 2650 
1839 1 -0.00268586 0.0149647 -0.0148488 0.000116 -0.0676852 0.0211351 0.0188737 2650 
148 1 -0.00728001 0.0298392 -0.0147878 0.000423 -0.145516 -0.155086 0.0592808 2650 
4234 1 -0.00461623 0.0305285 -0.0149582 0.000116 -0.0277623 0.0670651 -0.0707711 2650 
1124 1 -0.001109 0.0373029 -0.0144729 0.000423 0.115227 0.0704534 -0.0460588 2650 
2863 1 -0.0044557 0.0496248 -0.0149586 0.000656 0.0278245 0.133951 -0.121512 2650 
2237 1 -0.0671216 -0.0408923 -0.0140568 0.000423 -1.381 -0.0202973 6.55915 2650 
115 1 -0.0669332 -0.0385894 -0.013824 0.000656 -1.46393 0.104296 7.19391 2650 
1829 1 -0.0076117 -0.003855 -0.0140814 0.000116 -0.366565 -0.262225 -0.190707 2650 
2666 1 -0.00508007 -0.00266796 -0.0141948 0.000423 0.0429038 -0.00888448 0.00629481 2650 
3576 1 -0.00417508 -0.0014623 -0.0134975 0.000116 0.0561059 0.00120064 -0.0311085 2650 
2332 1 -0.00547078 -0.000651755 -0.0134987 0.000423 -0.0114447 -0.00779769 0.00753018 2650 
2922 1 -0.00753351 0.00137093 -0.0137407 0.000116 -0.00925852 -0.000802711 0.00675368 2650 
2512 1 -0.00761695 0.00238804 -0.0134362 0.000116 0.018779 -0.0192413 0.00230208 2650 
2474 1 -0.00158716 0.00280376 -0.0136511 0.000423 0.0307748 -0.0136667 -0.043701 2650 
150 1 -0.00884346 0.00331836 -0.0137287 0.000423 -0.0542472 0.016714 0.0257745 2650 
220 1 -0.00343043 0.00326874 -0.0141531 4.2e-05 0.00197382 0.00663681 0.00671825 2650 
4300 1 -0.000526864 0.00381829 -0.0138562 0.000423 0.0157414 0.0249973 -0.0399245 2650 
2913 1 -0.00920843 0.00444806 -0.0138423 0.000116 -0.0140945 -0.0228944 -0.00540615 2650 
2322 1 -0.00902321 0.00596313 -0.0134406 0.000656 -0.00299145 -0.013582 0.00409796 2650 
1288 1 -0.002467 0.00589835 -0.014044 0.000116 0 -0.011753 0 2650 
3515 1 -0.00821867 0.00687673 -0.0139722 0.000656 -0.00927244 -0.00874495 -0.000839897 2650 
2918 1 -0.00698828 0.00644206 -0.01369 0.000116 0.0149777 0.0131491 0.0124233 2650 
963 1 -0.00699573 0.00701891 -0.0136993 0.000116 0.00350227 -0.00324664 0.0156587 2650 
1618 1 -0.00986208 0.00749478 -0.0136062 0.000116 0.0059414 0.00192455 -0.00369393 2650 
1250 1 -0.00870367 0.00777153 -0.0134412 0.000423 -0.00730125 -0.00574558 -0.000431452 2650 
1769 1 -0.00784333 0.00840243 -0.0139714 0.000656 -0.0151574 -0.00915465 0.00228284 2650 
2313 1 -0.00364749 0.00826238 -0.0140556 0.000656 0.0121795 0.0249345 0.010824 2650 
2726 1 -8.27275e-05 0.00850183 -0.013576 0.000116 -0.00741369 0.00988612 -0.041436 2650 
4190 1 -0.00877367 0.00896942 -0.0139463 0.000423 -0.00788233 0.00684233 0.00501954 2650 
1476 1 -0.00732393 0.00992822 -0.0134384 0.000423 -0.00473027 0.00118609 -0.000138689 2650 
1827 1 -0.00578153 0.00953316 -0.0139079 0.000116 0.0445821 -0.0304485 -0.00868089 2650 
1409 1 -0.00044 0.00967835 -0.013868 0.000116 0 -0.011753 0 2650 
3150 1 -0.00105946 0.0106532 -0.0141919 0.000116 -0.0182263 -0.0087302 -0.0269448 2650 
1617 1 -0.000831671 0.0112244 -0.0141691 0.000116 0.00511482 0.0710113 0.047396 2650 
93 1 -0.00955452 0.0172355 -0.013473 0.000116 0.0573325 0.04651 -0.0562898 2650 
4231 1 -0.00142889 0.0181412 -0.0141165 0.000116 -0.0134934 0.0153003 0.0304581 2650 
1717 1 -0.00308323 0.0263853 -0.0138521 0.000116 -0.014717 0.0706098 -0.0348682 2650 
1195 1 -0.00661161 0.0300608 -0.0140776 0.000116 0.0557766 0.0782116 -0.0138054 2650 
945 1 -0.00937143 0.0474811 -0.0138384 0.000116 -0.168071 -0.11375 0.123831 2650 
981 1 -0.0677595 -0.0299816 -0.0127706 4.2e-05 -1.28546 1.96066 6.98295 2650 
1763 1 -0.00207516 -0.00283779 -0.0133649 0.000656 -0.0890582 0.0217677 -0.0881811 2650 
3191 1 -0.00911909 -0.000497808 -0.0128349 0.000656 -0.0183475 -0.00795438 -0.00635009 2650 
623 1 -0.00793201 -0.000332823 -0.0130381 0.000116 -0.0192086 -0.00896372 0.0230222 2650 
2619 1 -0.00617208 0.000739939 -0.0127304 0.000116 -0.0137973 -0.0204082 0.00531131 2650 
4165 1 -0.00526468 0.000786335 -0.0128442 0.000656 -0.00295906 -0.0330191 0.0101422 2650 
2525 1 -0.004063 0.000125354 -0.013231 4.2e-05 0 -0.011753 0 2650 
4126 1 -0.00745086 0.000994207 -0.0128513 0.000116 -0.0261531 0.0084042 0.00402279 2650 
3880 1 -0.0103575 0.00199276 -0.0128443 0.000423 -0.0020648 -0.00583391 0.00454369 2650 
2473 1 -0.00926184 0.00193764 -0.0129515 0.000423 0.0167774 -0.00661482 -0.0238345 2650 
2609 1 -0.00886 0.00166535 -0.013248 0.000116 0 -0.011753 0 2650 