ITEM: TIMESTEP
5409798
ITEM: NUMBER OF ATOMS
4370
ITEM: BOX BOUNDS ff ff ff
-0.15 0.15
-0.15 0.06
-0.15 0.15
ITEM: ATOMS id type x y z radius vx vy vz density 
2314 1 -0.00365464 -0.0583427 -0.0682483 0.000656 -5.21361 0.396153 0.270945 2650 
1320 1 -0.00987081 -0.0500178 -0.0682482 4.2e-05 -7.83366 -0.163614 1.12911 2650 
2317 1 -0.00505789 -0.0468245 -0.0681563 0.000656 -6.74166 -0.0940438 0.512975 2650 
3308 1 -0.0665799 -0.0450957 -0.0164148 0.000423 -1.0776 0.173466 4.29318 2650 
983 1 -0.0684708 -0.0622963 -0.00818646 4.2e-05 -1.29903 -0.0148459 10.8669 2650 
3426 1 -0.0685445 -0.0512528 -0.00212632 0.000423 -0.13214 -0.939484 4.31811 2650 
3602 1 -0.068848 -0.0455915 -0.00220738 0.000116 -0.130609 0.281659 3.82728 2650 
418 1 -0.0397012 -0.0601467 0.0562913 0.000116 6.43976 -0.25497 4.53814 2650 
3038 1 -0.0386063 -0.061142 0.0570484 0.000116 4.24672 -0.047005 2.89418 2650 
4316 1 -0.0310395 -0.0498383 0.0611514 0.000423 4.46867 0.0606388 2.26533 2650 
669 1 -0.0213333 -0.0548459 0.0649201 0.000656 4.8144 0.160965 1.63385 2650 
3331 1 -0.000557732 -0.0598054 0.0685753 0.000423 4.27863 0.238356 0.017858 2650 
634 1 -0.0252138 -0.0619804 0.129091 0.000116 4.08342 0.0490496 10.9316 2650 
4037 1 -0.00333816 -0.0336862 -0.0688036 0.000116 -4.5589 0.0055038 0.258868 2650 
3580 1 -0.000356111 -0.0156464 -0.0688829 0.000116 -4.90528 0.54586 0.0387135 2650 
1210 1 -0.0056578 -0.00801279 -0.0687261 4.2e-05 -3.14186 -0.206652 0.233095 2650 
2074 1 -0.00144668 -0.00034229 -0.0688685 0.000116 -3.92834 -0.0452279 0.0878239 2650 
2436 1 -0.00261759 -0.0321252 -0.0685287 0.000423 -4.58169 0.17686 0.181472 2650 
2601 1 -0.0094749 -0.0311863 -0.0682299 0.000116 -4.85287 0.119252 0.683684 2650 
163 1 -0.00782447 -0.0311854 -0.0681307 0.000423 -5.47284 0.0437037 0.620252 2650 
3229 1 -0.0077354 -0.0262642 -0.0681403 0.000423 -5.04379 -0.20798 0.569629 2650 
1740 1 -0.00899483 -0.0249353 -0.0682942 0.000116 -4.81671 0.1392 0.620884 2650 
574 1 -0.00667276 -0.0231174 -0.0682528 0.000423 -5.61284 0.369814 0.532654 2650 
992 1 -0.00178745 -0.0234256 -0.0683229 0.000656 -6.36902 0.0622052 0.228716 2650 
4087 1 -0.00944358 -0.021052 -0.0679245 0.000423 -5.21848 0.031518 0.709756 2650 
3470 1 -0.0114804 -0.0144772 -0.0679194 0.000116 -4.89969 0.23061 0.817013 2650 
3683 1 -0.00594328 -0.0144354 -0.0686275 0.000116 -4.60051 0.453741 0.382206 2650 
1503 1 -0.00581396 -0.0138264 -0.0686156 0.000116 -5.00578 0.756336 0.297862 2650 
3095 1 -0.00542746 -0.0142029 -0.0683633 0.000423 -4.91238 0.285364 0.415913 2650 
4338 1 -0.00939537 -0.00762082 -0.0682406 0.000116 -3.94464 -0.0410454 0.534475 2650 
893 1 -0.00981679 -0.034578 -0.067873 0.000423 -5.26562 0.149106 0.752329 2650 
2895 1 -0.0124922 -0.0199369 -0.0674307 0.000423 -5.3635 0.00376764 0.994616 2650 
2680 1 -0.0141639 -0.0124181 -0.0670891 0.000423 -4.29793 -0.0694844 0.844705 2650 
491 1 -0.0105629 -0.0093389 -0.0677601 0.000423 -3.7837 -0.173196 0.491637 2650 
3005 1 -0.0105143 -0.00722512 -0.0677668 0.000423 -4.29823 -0.122971 0.621259 2650 
897 1 -0.0172841 -0.0438572 -0.0663643 0.000423 -5.45032 -0.170027 1.44229 2650 
1304 1 -0.0157578 -0.028796 -0.0670577 0.000116 -5.45177 -0.0357546 1.30761 2650 
1915 1 -0.0145955 -0.0261166 -0.067007 0.000423 -5.76638 0.207237 1.25273 2650 
2703 1 -0.0178624 -0.0256303 -0.0665275 0.000116 -5.3624 -1.47914 1.43974 2650 
2457 1 -0.0172952 -0.0249528 -0.0663608 0.000423 -5.21479 0.241049 1.34824 2650 
312 1 -0.0183024 -0.022374 -0.0664076 0.000116 -7.52456 0.248323 2.0702 2650 
1213 1 -0.0152737 -0.0140807 -0.0666008 0.000656 -4.50576 -0.100851 1.05293 2650 
1433 1 -0.015224 -0.0118895 -0.0666162 0.000656 -3.98012 -0.189805 0.997894 2650 
2160 1 -0.0173745 -0.000146876 -0.0666564 0.000116 -4.08994 0.530752 1.05867 2650 
2132 1 -0.018432 -0.0438972 -0.0660542 0.000423 -5.15245 0.8484 1.41 2650 
336 1 -0.0194996 -0.0313643 -0.0655048 0.000656 -5.38024 -0.24205 1.59563 2650 
416 1 -0.0194094 -0.0271162 -0.0660927 0.000116 -5.4406 0.121807 1.58127 2650 
367 1 -0.0193501 -0.0190703 -0.0657843 0.000423 -3.38963 -0.395698 1.08999 2650 
2238 1 -0.0213401 -0.0387248 -0.0651658 0.000423 -4.42125 0.583659 1.42324 2650 
4139 1 -0.0227827 -0.0341207 -0.0649792 0.000116 -5.67551 -0.23623 2.00317 2650 
1107 1 -0.0216274 -0.0280293 -0.0648067 0.000656 -5.68052 -0.0191729 1.80955 2650 
1453 1 -0.0219335 -0.0209223 -0.0649757 0.000423 -4.92858 -0.50678 1.70577 2650 
4101 1 -0.0218423 -0.0175728 -0.065006 0.000423 -5.00224 -0.201132 1.67991 2650 
3729 1 -0.0235914 -0.0241837 -0.0641384 0.000656 -5.83223 0.127001 2.1404 2650 
1071 1 -0.0256392 -0.0228375 -0.0639333 0.000116 -4.62159 -0.129228 1.89482 2650 
3514 1 -0.0233041 -0.0227876 -0.0642485 0.000656 -5.75113 0.00562425 2.06169 2650 
2052 1 -0.0260247 -0.0121318 -0.0637788 0.000116 -2.98267 -0.278127 1.24037 2650 
2353 1 -0.0257604 -0.00236218 -0.063555 0.000423 -4.61226 -0.174509 1.85889 2650 
1601 1 -0.028044 -0.0208945 -0.0629168 0.000116 -5.33617 -0.59026 2.39963 2650 
3974 1 -0.0279237 -0.0167955 -0.062635 0.000423 -5.38969 -0.202718 2.38404 2650 
420 1 -0.0284765 -0.0116097 -0.0627231 0.000116 -3.15377 -0.229373 1.45128 2650 
3502 1 -0.0279798 -0.00476891 -0.0630265 4.2e-05 -2.92909 -0.0985906 1.29391 2650 
1081 1 -0.0294279 -0.0205845 -0.0622822 0.000116 -4.32386 0.233745 2.03106 2650 
2875 1 -0.0290331 -0.00869498 -0.0621296 0.000423 -2.93078 -0.406046 1.38645 2650 
3319 1 -0.0307317 -0.0305693 -0.0613076 0.000423 -4.71111 0.111759 2.35054 2650 
3261 1 -0.0319285 -0.0214199 -0.0610374 0.000116 -3.93189 -0.242629 2.03436 2650 
1356 1 -0.0313448 -0.013215 -0.0609952 0.000423 -4.07114 -0.281765 2.08173 2650 
3198 1 -0.0306037 -0.0129852 -0.0613707 0.000423 -4.11111 -0.132251 2.02927 2650 
3360 1 -0.0334283 -0.0388995 -0.060229 0.000116 -4.64818 -0.350163 2.5679 2650 
82 1 -0.0335877 -0.0233706 -0.0601403 0.000116 -3.7181 -0.236419 2.05162 2650 
3054 1 -0.0333189 -0.0217091 -0.0602898 0.000116 -4.95708 -0.109116 2.73442 2650 
427 1 -0.0337892 -0.0168343 -0.0600274 0.000116 -4.96143 0.180278 2.78793 2650 
432 1 -0.0338764 -0.0159221 -0.0600631 4.2e-05 -3.80193 0.148027 2.14766 2650 
1481 1 -0.0337019 -0.0359516 -0.0597254 0.000423 -4.36737 0.373497 2.46782 2650 
618 1 -0.0352237 -0.0291323 -0.0591978 0.000116 -4.35108 -0.332672 2.59104 2650 
38 1 -0.033688 -0.0286426 -0.059733 0.000423 -4.69517 0.185911 2.64467 2650 
2103 1 -0.0346183 -0.0145447 -0.0591994 0.000423 -3.34201 -0.0835608 1.94623 2650 
91 1 -0.0349786 -0.00690445 -0.059343 0.000116 -3.10119 0.131802 1.80201 2650 
814 1 -0.033342 -0.000778266 -0.0599266 0.000423 -3.85548 -0.0780857 2.14471 2650 
1649 1 -0.0356675 -0.0412244 -0.0590175 4.2e-05 -7.13115 1.48717 4.31302 2650 
1905 1 -0.0353075 -0.0252087 -0.0587904 0.000423 -4.47938 0.0906851 2.66898 2650 
2928 1 -0.0355885 -0.0170974 -0.0589785 0.000116 -4.83566 0.220322 2.89713 2650 
2087 1 -0.0360264 -0.0151635 -0.0587989 4.2e-05 -6.44468 -0.175816 3.94413 2650 
400 1 -0.0362226 -0.0135026 -0.0585918 0.000116 -3.17568 -0.330752 1.93587 2650 
2167 1 -0.0366829 -0.0273778 -0.0583043 0.000116 -4.48257 -0.428652 2.80391 2650 
397 1 -0.0367446 -0.00657279 -0.0582654 0.000116 -4.17121 -0.175199 2.62026 2650 
1535 1 -0.0374464 -4.2028e-05 -0.0579044 4.2e-05 -3.20247 0.00373044 2.06289 2650 
2823 1 -0.0367531 -0.000127819 -0.0582598 0.000116 -3.09002 0.071265 1.95281 2650 
2685 1 -0.0381321 -0.0281088 -0.0569987 0.000423 -4.20912 0.476788 2.82962 2650 
3812 1 -0.0389032 -0.0177276 -0.0568464 0.000116 -4.29379 -0.372844 2.93692 2650 
3242 1 -0.0378564 -0.0177567 -0.0575488 0.000116 -3.99267 -0.45531 2.62464 2650 
4331 1 -0.0386818 -0.00803074 -0.0569971 0.000116 -2.62816 -0.201411 1.77509 2650 
2232 1 -0.0391034 -0.0232243 -0.0563367 0.000423 -4.3813 0.0260604 3.02841 2650 
1461 1 -0.0393284 -0.018314 -0.0561796 0.000423 -4.59578 0.0516549 3.22047 2650 
3479 1 -0.039133 -0.0179033 -0.0566885 0.000116 -4.63815 0.21478 3.21894 2650 
1314 1 -0.0401265 -0.00486539 -0.0560804 4.2e-05 -4.49786 0.219567 3.20815 2650 
3015 1 -0.0410584 -0.0195429 -0.0549285 0.000423 -4.34303 0.322969 3.22774 2650 
319 1 -0.041701 -0.015428 -0.0548244 0.000116 -2.80852 -0.00424202 2.15542 2650 
35 1 -0.0425304 -0.0421279 -0.053796 0.000423 -3.42693 -0.23554 2.73447 2650 
2557 1 -0.0423947 -0.0347981 -0.0538863 0.000423 -4.41075 0.117128 3.3355 2650 
1914 1 -0.0428961 -0.0192664 -0.0535012 0.000423 -4.42421 0.258271 3.6601 2650 
2820 1 -0.0469449 -0.00206536 -0.05041 0.000116 -3.59116 0.486239 3.3942 2650 
1510 1 -0.0482353 -0.0300838 -0.0491764 0.000116 -3.60881 -0.0662041 3.4964 2650 
2151 1 -0.048025 -0.00662532 -0.0493731 0.000116 -3.07987 -0.0755366 3.02832 2650 
3248 1 -0.0490866 -0.00596259 -0.0483268 0.000116 -2.48944 -0.076065 2.47888 2650 
4210 1 -0.0496819 -0.0306621 -0.0472723 0.000423 -3.58096 0.294967 3.75913 2650 
835 1 -0.051006 -0.0081416 -0.0462977 0.000116 -2.64289 -0.0406068 2.89413 2650 
646 1 -0.0510625 -0.00847878 -0.0462349 0.000116 -2.65991 -0.0484805 2.92866 2650 
4138 1 -0.0517585 -0.027257 -0.0454548 0.000116 -3.08579 -0.106294 3.49183 2650 
3372 1 -0.0517253 -0.0210507 -0.0454918 0.000116 -4.11114 0.642245 4.66358 2650 
838 1 -0.0517381 -0.00901945 -0.0454786 0.000116 -2.23312 -0.183685 2.49237 2650 
358 1 -0.0540388 -0.0248142 -0.0422218 0.000423 -2.99863 -0.0168296 3.83374 2650 
2418 1 -0.0547522 -0.00233378 -0.0419209 4.2e-05 -2.96438 -0.294729 3.8642 2650 
2546 1 -0.0550637 -0.0250491 -0.040876 0.000423 -2.77195 -0.0316087 3.70608 2650 
1060 1 -0.0557568 -0.0226687 -0.0404493 0.000116 -3.40839 -0.614103 4.69697 2650 
1669 1 -0.0554922 -0.0213826 -0.040293 0.000423 -3.40135 -0.503127 4.7133 2650 
228 1 -0.0556106 -0.0191966 -0.0397312 0.000656 -3.69276 0.0899687 5.17092 2650 
538 1 -0.056101 -0.0159764 -0.0399711 0.000116 -2.55644 -0.153996 3.61547 2650 
3692 1 -0.0562237 -0.00945249 -0.0397982 0.000116 -2.92815 0.590887 4.15765 2650 
3960 1 -0.0557277 -0.00853251 -0.0399664 0.000423 -1.7652 0.0453932 2.47311 2650 
2198 1 -0.0564045 -0.00592575 -0.0396694 4.2e-05 -3.0473 1.46856 4.3276 2650 
758 1 -0.0565039 -0.00178015 -0.0393989 0.000116 -2.72738 -0.273442 3.95481 2650 
1343 1 -0.0562554 -0.00586031 -0.0392202 0.000423 -2.21901 -0.16583 3.16984 2650 
2738 1 -0.0576558 -0.0145294 -0.0378277 4.2e-05 -1.78539 -0.266905 2.78697 2650 
1363 1 -0.0581952 -0.0190608 -0.0362699 0.000423 -2.58871 0.0125907 4.02553 2650 
2967 1 -0.0575095 -0.0195691 -0.0369319 0.000656 -2.5889 -0.148621 4.06902 2650 
3196 1 -0.0161003 -0.00666635 -0.0368603 0.000423 -2.27217 -0.339059 -5.30073 2650 
2605 1 -0.0583108 -0.00458838 -0.0366643 0.000116 -2.23567 0.127658 3.40913 2650 
1135 1 -0.0585873 -0.03724 -0.0356271 0.000423 -2.79315 -0.0239067 4.61842 2650 
1136 1 -0.0584425 -0.0231579 -0.0358708 0.000423 -3.22207 0.124974 5.29594 2650 
3387 1 -0.059023 -0.0204681 -0.0355145 0.000116 -3.73843 0.0420073 6.23993 2650 
1282 1 -0.0586712 -0.0132357 -0.0360445 0.000116 -1.96834 -0.18262 2.97082 2650 
759 1 -0.0589743 -0.000162895 -0.0355955 0.000116 -2.44049 -0.17692 4.01225 2650 
2664 1 -0.0590306 -0.0281432 -0.0348352 0.000423 -2.66249 -0.0194918 4.50065 2650 
2343 1 -0.0588102 -0.0236696 -0.0352558 0.000423 -3.0589 -0.585683 5.03153 2650 
578 1 -0.0589382 -0.0208257 -0.03506 0.000423 -2.8015 0.0265802 4.709 2650 
3227 1 -0.0588935 -0.019832 -0.0351356 0.000423 -2.75636 0.0610372 4.5805 2650 
2039 1 -0.0594224 -0.00424918 -0.0348281 0.000116 -2.41232 -0.148205 4.15469 2650 
3850 1 -0.0594201 -0.0349881 -0.0341992 0.000423 -2.6559 0.169997 4.7664 2650 
940 1 -0.0596696 -0.0215345 -0.0344168 0.000116 -2.29863 -0.0068577 3.94449 2650 
483 1 -0.059882 -0.0339115 -0.0334231 0.000423 -2.7414 -0.0222057 4.99404 2650 
3647 1 -0.0597594 -0.019614 -0.0336405 0.000423 -2.74804 0.259023 4.85898 2650 
1170 1 -0.0604688 -0.0221253 -0.0329924 0.000116 -2.34769 0.0990415 4.34536 2650 
3531 1 -0.0604249 -0.0177094 -0.0324312 0.000423 -2.80182 -0.166029 5.22956 2650 
3622 1 -0.0602547 -0.034582 -0.0322231 0.000656 -2.67998 0.114052 4.91576 2650 
636 1 -0.0609073 -0.019967 -0.032176 0.000116 -1.79748 -0.0662801 3.36453 2650 
1555 1 -0.0609439 -0.0341563 -0.0314179 0.000423 -2.52941 0.288179 5.00556 2650 
3391 1 -0.0615277 -0.0177328 -0.0311341 4.2e-05 -1.65591 0.0215929 3.28317 2650 
1537 1 -0.0616003 -0.00160287 -0.0309911 4.2e-05 -2.37099 -0.221678 4.76856 2650 
1563 1 -0.0616217 -0.0383141 -0.0300927 0.000423 -2.27177 -0.117241 4.79274 2650 
3619 1 -0.0618614 -0.00309574 -0.0304636 4.2e-05 -2.17078 -0.254416 4.4149 2650 
2964 1 -0.0619814 -0.000792524 -0.0302235 4.2e-05 -2.03047 -0.144749 4.13373 2650 
3586 1 -0.0622101 -0.0142411 -0.0295693 0.000116 -1.76987 -0.0253339 3.68678 2650 
1185 1 -0.0614499 -0.0139627 -0.0298733 0.000116 1.44911 -0.727204 3.81274 2650 
1675 1 -0.0629755 -0.0233983 -0.0271474 0.000423 -2.22391 0.162246 5.19347 2650 
3642 1 -0.0635604 -0.0242368 -0.0257484 0.000423 -2.0897 0.194134 5.18718 2650 
633 1 -0.0641067 -0.0236404 -0.0252061 0.000116 -2.06267 0.329189 5.22234 2650 
1207 1 -0.064041 -0.00742147 -0.0255732 4.2e-05 -1.50492 0.444618 3.76298 2650 
2858 1 -0.0636232 -0.0308561 -0.0249651 0.000656 -2.25109 0.0940297 5.77485 2650 
1877 1 -0.0637045 -0.0273849 -0.0247574 0.000656 -2.08132 -0.0235107 5.42871 2650 
175 1 -0.0642419 -0.0248139 -0.0248591 0.000116 -1.91183 0.651364 5.0065 2650 
1104 1 -0.0640936 -0.0254699 -0.0237296 0.000656 -1.89153 0.107005 5.07553 2650 
3349 1 -0.0279556 -0.00404425 -0.0239959 0.000116 -4.18154 -0.0990081 -3.61121 2650 
3946 1 -0.0648575 -0.029743 -0.0234259 4.2e-05 -2.27727 0.165152 6.2958 2650 
121 1 -0.064274 -0.0222709 -0.0232383 0.000656 -1.91019 -0.0177498 5.15254 2650 
3041 1 -0.0652057 -0.0377116 -0.0222084 0.000116 -2.06224 -0.364582 6.03503 2650 
1870 1 -0.065221 -0.0197804 -0.0223917 4.2e-05 -1.22758 -0.0676726 3.56706 2650 
1841 1 -0.0660039 -0.0409053 -0.019709 0.000116 -1.66561 -0.152012 5.57439 2650 
661 1 -0.0652309 -0.0362266 -0.0204015 0.000656 -1.73421 0.121203 5.42334 2650 
486 1 -0.0655399 -0.0254106 -0.0201854 0.000423 -1.45725 -0.104287 4.80016 2650 
3583 1 -0.065849 -0.024707 -0.0202213 0.000116 -1.69689 -0.133381 5.56761 2650 
2672 1 -0.0655195 -0.00644553 -0.0202523 0.000423 -1.06593 -0.151338 3.5572 2650 
980 1 -0.0522796 -0.00448147 -0.0200617 4.2e-05 -8.15179 -0.120711 -3.12816 2650 
3252 1 -0.0662019 -0.0183622 -0.0190336 0.000116 -1.26967 0.0968051 4.59093 2650 
3276 1 -0.0661381 -0.0155868 -0.0192557 0.000116 -1.97239 0.0199612 6.78821 2650 
3337 1 -0.0658978 -0.00836195 -0.0189833 0.000423 -0.928325 -0.152636 3.183 2650 
1175 1 -0.0666242 -0.0340908 -0.0174974 0.000116 -1.57564 0.5201 6.00243 2650 
935 1 -0.066181 -0.0105077 -0.0179736 0.000423 -1.26218 -0.303029 4.6342 2650 
3366 1 -0.0668075 -0.0115602 -0.016786 0.000116 -1.42908 0.255606 5.68114 2650 
4373 1 -0.066927 -0.0050806 -0.0166102 4.2e-05 -0.803679 -0.0684713 3.23884 2650 
606 1 -0.000183 0.00332435 -0.016592 0.000116 0 -0.011753 0 2650 
188 1 -0.000476617 0.00856269 -0.0168174 0.000116 -0.0156058 0.0716121 0.00169132 2650 
2713 1 -0.000763 0.0102953 -0.016767 0.000116 0 -0.011753 0 2650 
410 1 -0.0670551 -0.0273234 -0.0157674 0.000116 -1.18299 -0.714539 5.13789 2650 
1500 1 -0.000256056 -0.00436089 -0.016423 0.000116 -0.350479 -0.662218 -1.18199 2650 
736 1 -0.003429 0.00124935 -0.016474 0.000116 0 -0.011753 0 2650 
150 1 -0.00262633 0.000970903 -0.0162219 0.000423 -0.00913371 0.00501626 0.00203877 2650 
676 1 -0.00240165 0.00192382 -0.0160009 0.000423 -0.0130706 -0.00428427 0.0172903 2650 
1679 1 -0.00363422 0.0027076 -0.0159622 0.000423 -0.000267589 -0.00703629 -0.00433961 2650 
2013 1 -0.00276056 0.00290856 -0.0161502 0.000423 0.00298908 -0.00809762 0.00112683 2650 
3589 1 -0.00324303 0.00466414 -0.0163359 0.000116 0.155503 0.064687 -0.0402711 2650 
2301 1 -0.004222 0.00509735 -0.016305 4.2e-05 0 -0.011753 0 2650 
3121 1 -0.00361894 0.00504936 -0.0160764 0.000423 0.0295457 0.00139416 -0.0105356 2650 
1388 1 -0.000391787 0.00518009 -0.0161897 0.000116 -0.039288 0.0021603 0.0169103 2650 
302 1 -0.000551586 0.00620364 -0.01641 0.000116 0.0171051 0.0203877 0.0103663 2650 
1219 1 -0.000843156 0.00672965 -0.0158622 0.000656 0.0133734 0.0239605 0.00857101 2650 
3934 1 -0.001977 0.00808635 -0.016218 0.000116 0 -0.011753 0 2650 
142 1 -0.00342308 0.022809 -0.0161085 0.000423 -0.0600809 0.0373384 0.0570253 2650 
4245 1 -0.000655174 0.0389806 -0.0164242 0.000116 -0.131082 0.152483 0.00432583 2650 
1357 1 -0.00369114 0.0464911 -0.0159948 0.000423 0.0681058 0.285169 -0.0155587 2650 
1878 1 -0.0667073 -0.0363145 -0.0148764 0.000656 -1.26004 0.0687529 5.61534 2650 
2793 1 -0.000994288 -0.00114175 -0.0152582 0.000423 -0.196801 0.282111 -0.308846 2650 
623 1 -0.00686659 0.00060821 -0.0150906 0.000116 -0.00477071 -0.00938024 -0.0420845 2650 
1991 1 -0.00493576 0.00055385 -0.0153598 0.000656 -0.0197706 -0.00214867 0.00868857 2650 
222 1 -0.00196921 0.000503868 -0.0151101 0.000656 -0.00713779 -0.040298 -0.0148088 2650 
2922 1 -0.00641792 0.00170266 -0.0152667 0.000116 -0.0108987 -0.0113206 0.0393947 2650 
3637 1 -0.00365445 0.00202847 -0.0150011 0.000423 -0.00927015 0.0142513 -0.0137177 2650 
3239 1 -0.002871 0.00173832 -0.0157591 0.000116 -0.0332144 0.00168872 0.00188105 2650 
2399 1 -0.002418 0.00353835 -0.015541 0.000116 0 -0.011753 0 2650 
2283 1 -0.00171273 0.00400851 -0.0152539 0.000116 -0.0318858 -0.01081 -0.0228231 2650 
2313 1 -0.00498369 0.00526939 -0.0152935 0.000656 0.00856952 0.0288131 0.00982472 2650 
2438 1 -0.00573482 0.00671266 -0.0152963 0.000423 0.00192492 -0.00355692 -0.0258764 2650 
978 1 -0.00517154 0.00688796 -0.0154849 0.000116 0.015313 -0.00383775 -0.0151954 2650 
1620 1 -0.00387624 0.00733156 -0.0155972 0.000116 0.0529387 0.0514306 -0.00503745 2650 
2969 1 -0.00130644 0.00777113 -0.0150947 0.000656 -0.00819712 0.0280435 0.000260256 2650 
1483 1 -0.000304104 0.00820359 -0.0152145 0.000423 -0.0010087 0.0213686 -0.00667363 2650 
86 1 -0.002064 0.00934235 -0.015055 0.000116 0 -0.011753 0 2650 
3177 1 -0.001068 0.00914235 -0.015412 4.2e-05 0 -0.011753 0 2650 
1228 1 -0.00141657 0.00940878 -0.0150039 0.000423 -0.00123313 -0.0118667 -0.000623591 2650 
3830 1 -0.006879 0.00963835 -0.015411 4.2e-05 0 -0.011753 0 2650 
1617 1 -0.00396689 0.00961326 -0.0157378 0.000116 0.0304875 0.00968505 -0.0492471 2650 
371 1 -0.000468587 0.0100693 -0.0151805 0.000423 0.000724313 -0.00601752 -0.0061741 2650 
938 1 -0.000869 0.0105483 -0.015416 0.000116 0 -0.011753 0 2650 
568 1 -0.00360731 0.0162369 -0.0156627 0.000423 0.0646767 0.0324089 0.0265592 2650 
913 1 -0.000831502 0.0231097 -0.0157018 0.000423 -0.0131935 0.0940792 0.0439723 2650 
2827 1 -0.00478588 -0.000856668 -0.0142786 0.000116 -0.0201753 -0.0226203 0.0017234 2650 
3043 1 -0.00117833 -0.000817616 -0.0145667 0.000116 -0.16517 0.282697 -0.415627 2650 
1053 1 -0.007469 -0.000303654 -0.014946 0.000116 0 -0.011753 0 2650 
2817 1 -0.001957 -0.000518773 -0.0145096 0.000116 0.0100645 -0.056664 0.00630574 2650 
2332 1 -0.00413769 0.000256522 -0.0143758 0.000423 -0.0114447 -0.00779769 0.00753018 2650 
220 1 -0.003649 0.00260135 -0.014897 4.2e-05 0 -0.011753 0 2650 
3365 1 -0.002315 0.00596435 -0.014552 0.000116 0 -0.011753 0 2650 
1618 1 -0.00806679 0.00676273 -0.0146598 0.000116 -0.0222988 0.059375 0.0201275 2650 
3950 1 -0.00679185 0.00661628 -0.0143984 0.000656 -0.0401516 -0.0144037 -0.0334096 2650 
4190 1 -0.00819581 0.00856476 -0.0142902 0.000423 -0.009489 7.8582e-05 0.00632979 2650 
508 1 -0.00866354 0.0081146 -0.0142201 0.000116 -0.0609474 0.0130298 0.0475554 2650 
963 1 -0.00526898 0.00829356 -0.014542 0.000116 -0.029376 -0.065298 -0.0412241 2650 
581 1 -0.00559549 0.00882429 -0.0142771 0.000423 -0.000593495 -0.0101803 -0.00423903 2650 
3669 1 -0.000291948 0.010771 -0.0145987 0.000423 0.00220454 -0.00743356 -0.00383523 2650 
3644 1 -0.000863704 0.0122924 -0.0143764 0.000423 -0.00432743 0.00711996 -0.0325914 2650 
3216 1 -0.00453065 0.0245162 -0.0144118 0.000423 -0.00544148 0.107266 0.0543995 2650 
518 1 -0.0674487 -0.00960502 -0.0138837 0.000116 -0.78206 -0.257857 3.22266 2650 
509 1 -0.00728449 -0.000510181 -0.0137001 0.000116 -0.00521486 0.00944493 -0.0325939 2650 
3733 1 -0.00615649 0.000869367 -0.013971 0.000656 -0.0232119 0.0173762 0.0152854 2650 
2512 1 -0.00971692 0.0046123 -0.0135237 0.000116 0.002514 -0.0160812 -0.0313025 2650 
1171 1 -0.00847543 0.00444863 -0.0137271 0.000116 -0.0146011 -0.0168948 -0.0399555 2650 
3587 1 -0.00583001 0.00414638 -0.0140176 0.000116 -0.0152422 -0.0151231 -0.00566973 2650 
4165 1 -0.00517042 0.00455245 -0.0138635 0.000656 -0.000243806 -0.0320728 0.00848336 2650 
234 1 -0.00155714 0.00403488 -0.0139929 0.000423 0.0351287 -0.0167305 0.0264562 2650 
4296 1 -0.00305317 0.00604586 -0.0139702 0.000423 -0.0431702 0.0421068 0.0473826 2650 
1584 1 -0.00137104 0.00705888 -0.0134573 0.000423 -0.00963006 0.0395817 0.04039 2650 
2322 1 -0.00814901 0.00738397 -0.0136496 0.000656 -0.0108707 -0.010103 0.00337555 2650 
1288 1 -0.002467 0.00726735 -0.014044 0.000116 0 -0.011753 0 2650 
4227 1 -0.000215853 0.00721919 -0.0141222 0.000116 -0.00921828 -0.0161692 0.0154311 2650 
3515 1 -0.00701081 0.00795286 -0.0141731 0.000656 -0.0103794 -0.0121819 0.00307219 2650 
2222 1 -0.000358023 0.00810534 -0.0141515 0.000423 -0.00549102 -0.00568171 -0.00117535 2650 
1827 1 -0.00601034 0.0093362 -0.0135706 0.000116 -0.0386186 0.00754243 -0.0442276 2650 
1476 1 -0.006941 0.0100673 -0.013435 0.000423 0 -0.011753 0 2650 
233 1 -0.0047838 0.00994633 -0.0140986 0.000423 0.000342891 -0.00976437 -0.0328705 2650 
1986 1 -0.003039 0.00959064 -0.0139709 0.000656 0.00762539 0.0149956 0.0116892 2650 
4257 1 -0.00838357 0.0106154 -0.0141271 0.000116 0.0101268 -0.0416798 0.0036163 2650 
1409 1 -0.00044 0.0110473 -0.013868 0.000116 0 -0.011753 0 2650 
3007 1 -0.00110347 0.0114795 -0.0135217 0.000423 -0.0135196 -0.00505473 -0.0280609 2650 
3632 1 -0.00938148 0.012789 -0.013598 0.000423 -0.0216519 0.000467483 0.0139725 2650 
478 1 -0.00709397 0.0147961 -0.0134927 0.000423 -0.0255767 0.012458 -0.051203 2650 
2467 1 -0.00160349 0.0293316 -0.0140763 0.000423 0.0301791 0.103437 0.0421276 2650 
3573 1 -0.00675385 0.0342265 -0.0141548 0.000116 0.196545 -0.226716 -0.153339 2650 
330 1 -0.00714306 -0.00290709 -0.0128339 4.2e-05 -0.0696064 -0.0147686 0.0345761 2650 
4097 1 -0.0087026 -0.00225701 -0.0128628 0.000423 -0.0116536 0.00229875 0.0371095 2650 
1468 1 -0.00424017 -0.00170055 -0.013227 0.000423 -0.0197001 -0.0470204 -0.0326717 2650 
3153 1 -0.00150372 -0.00225576 -0.013138 0.000116 -0.0842498 -0.0374178 0.0430189 2650 
3551 1 -0.00625652 0.000186927 -0.0131393 0.000423 -0.016345 0.00465686 0.00721666 2650 
541 1 -0.00617859 0.000621831 -0.0127815 4.2e-05 -0.0143735 0.00954058 0.00936495 2650 
4126 1 -0.00440455 1.52837e-05 -0.0133199 0.000116 -0.0261531 0.0084042 0.00402279 2650 
2525 1 -0.004063 0.00149435 -0.013231 4.2e-05 0 -0.011753 0 2650 
2619 1 -0.005851 0.00231035 -0.012854 0.000116 0 -0.011753 0 2650 
2609 1 -0.00886 0.00303435 -0.013248 0.000116 0 -0.011753 0 2650 
3880 1 -0.010277 0.00322635 -0.012913 0.000423 0 -0.011753 0 2650 
3645 1 -0.00548218 0.00335321 -0.0127089 0.000423 -0.0357151 -0.0039173 0.0164321 2650 
3917 1 -0.003984 0.00379535 -0.012703 0.000116 0 -0.011753 0 2650 
2918 1 -0.00767026 0.00463049 -0.0132363 0.000116 -0.0132236 0.0205789 -0.0380223 2650 
1032 1 -0.00758849 0.00404055 -0.0129901 0.000423 -0.0173367 -0.00904293 -0.0556269 2650 
2912 1 -0.00579732 0.00460497 -0.013092 0.000116 0.0344903 0.00459865 -0.0369002 2650 
3322 1 -0.00369804 0.00442182 -0.0132145 0.000423 0.0155165 0.0110838 0.0251988 2650 
2059 1 -0.003583 0.00400435 -0.012756 0.000116 0 -0.011753 0 2650 
450 1 -0.00654533 0.00491744 -0.0133014 0.000656 0.0112424 0.0469319 0.00733295 2650 
2596 1 -0.00893746 0.0055937 -0.0132869 0.000116 -0.0442582 -0.0431064 0.0384975 2650 
104 1 -0.00289674 0.00569629 -0.0133164 4.2e-05 -0.00674979 0.0150481 0.0116551 2650 
4078 1 -0.00887754 0.00636515 -0.0127236 0.000423 -0.0196946 -0.00953845 0.00130892 2650 
2913 1 -0.00733339 0.00693482 -0.0130869 0.000116 -0.028239 -0.0119827 -0.0130286 2650 
1427 1 -0.002948 0.00633535 -0.013376 4.2e-05 0 -0.011753 0 2650 
1237 1 -0.01017 0.00763739 -0.0129174 0.000423 -0.00897314 0.0100083 -0.0434947 2650 
3259 1 -0.00863144 0.00765183 -0.0130746 0.000116 -0.0089878 -0.00810535 0.00538998 2650 
1519 1 -0.00258669 0.00777285 -0.0126841 0.000116 -0.0494896 0.0341374 0.0501115 2650 
1795 1 -0.00875489 0.00833306 -0.0129706 0.000423 0.00165908 -0.0118589 -0.000959055 2650 
1769 1 -0.00627273 0.00863353 -0.0133168 0.000656 -0.0139492 0.00030421 -0.000268195 2650 
1250 1 -0.00775829 0.0089238 -0.0129168 0.000423 -0.0109693 -0.0170514 -0.0143142 2650 
205 1 -0.000744 0.00905135 -0.01334 0.000116 0 -0.011753 0 2650 
2483 1 -0.00909067 0.00958036 -0.013194 0.000116 0.00258646 -0.0218162 0.0129531 2650 
949 1 -0.00636111 0.0107561 -0.012704 0.000116 -0.0176518 0.0277962 -0.00593252 2650 
1775 1 -0.00822744 0.0117997 -0.0130409 0.000423 -7.29146e-05 -0.011186 -0.000346901 2650 
959 1 -0.00697693 0.0122113 -0.0127867 0.000116 -0.0723779 0.0623805 -0.0339909 2650 
3932 1 -0.00501774 0.0201061 -0.0131383 0.000116 0.03152 0.0411719 0.0597923 2650 
1886 1 -0.0164363 -0.00448605 -0.0120074 0.000423 -2.06915 -0.195268 -1.53076 2650 
545 1 -0.002328 -0.00248065 -0.012432 4.2e-05 0 -0.011753 0 2650 
2172 1 -0.00875493 -0.0016644 -0.0122322 0.000116 0.0554355 0.00150652 -0.0523356 2650 
800 1 -0.00686783 -0.00181123 -0.0125879 0.000423 0.0734004 0.0256016 0.0971795 2650 
2468 1 -0.003167 -0.00210765 -0.012131 0.000423 0 -0.011753 0 2650 
1763 1 -0.001143 -0.00181965 -0.012442 0.000656 0 -0.011753 0 2650 
2645 1 -0.00575314 -0.00112422 -0.0119866 0.000656 -0.0337661 -0.0137944 0.0452096 2650 
3191 1 -0.00699493 -0.000314646 -0.0125297 0.000656 -0.0194676 0.00208869 -0.00166526 2650 
756 1 -0.0061604 -0.000458229 -0.011857 0.000116 0.041834 0.0697036 0.0154272 2650 
1422 1 -0.003881 2.63459e-05 -0.012349 4.2e-05 0 -0.011753 0 2650 
388 1 -0.00741318 0.0014396 -0.0121557 0.000116 0.0212466 0.0335067 0.0250458 2650 
3201 1 -0.00623381 0.00120536 -0.0124183 0.000423 -0.00608722 0.0216696 0.0089772 2650 
1799 1 -0.00323115 0.000834942 -0.0120572 0.000423 7.10678e-05 -0.0118308 4.63239e-05 2650 
3389 1 -0.010415 0.00229235 -0.012026 0.000116 0 -0.011753 0 2650 
3956 1 -0.00903428 0.00170449 -0.0123055 0.000656 -0.000640959 -0.0104529 -0.000368355 2650 
2285 1 -0.0117382 0.00386642 -0.0118561 0.000116 0.0175306 0.0103543 0.003719 2650 
411 1 -0.0104002 0.00459294 -0.0120897 0.000116 -0.00787832 -0.00657823 -8.20909e-05 2650 
3826 1 -0.009208 0.00418735 -0.012552 0.000116 0 -0.011753 0 2650 
708 1 -0.00276622 0.00455083 -0.0122026 0.000423 -0.00318183 -0.00599768 -0.010405 2650 
3380 1 -0.00222196 0.0045052 -0.0124734 0.000116 -0.00133046 -0.0120531 0.0302183 2650 
2194 1 -0.00232345 0.00464746 -0.0124885 4.2e-05 0.00491046 0.00111596 0.00228026 2650 
2957 1 -0.001811 0.00419246 -0.0122592 4.2e-05 0.0205169 0.0248349 -0.000218849 2650 
3316 1 -0.008979 0.00494035 -0.012376 0.000423 0 -0.011753 0 2650 
1261 1 -0.00744796 0.00495916 -0.0124253 0.000423 -0.000148786 -0.00207045 -0.0014312 2650 
3362 1 -0.00266572 0.00511848 -0.0122714 0.000116 0.000350619 -0.00253681 -0.00404217 2650 
2219 1 -0.00362399 0.00599543 -0.0125398 0.000423 0.0573797 0.046564 0.0166916 2650 
3446 1 -0.002592 0.00594735 -0.012627 0.000423 0 -0.011753 0 2650 
3030 1 -0.001189 0.00645035 -0.012596 0.000116 0 -0.011753 0 2650 
445 1 -0.00958668 0.00730326 -0.012056 0.000656 -0.00663315 0.0199971 -0.0284275 2650 
4318 1 -0.00858573 0.00770321 -0.012337 0.000423 -0.00589465 -0.00768269 0.00318441 2650 
2344 1 -0.0010138 0.00760578 -0.0118943 0.000423 0.00597873 -0.023338 -0.0226217 2650 
3847 1 -0.00965729 0.00857555 -0.0124138 0.000656 0.00296919 -0.00343098 -0.00030598 2650 
3173 1 -0.004958 0.00857935 -0.012321 4.2e-05 0 -0.011753 0 2650 
1495 1 -0.004483 0.00791835 -0.012591 0.000116 0 -0.011753 0 2650 
3684 1 -0.00433136 0.00819322 -0.0124094 0.000116 0.00413104 -0.0230128 -0.00941473 2650 
4002 1 -0.000443 0.00861135 -0.01223 0.000116 0 -0.011753 0 2650 
4179 1 -0.00710629 0.00898895 -0.0121222 0.000423 -0.00767678 -0.0221048 -0.00852388 2650 
2630 1 -0.001036 0.00878735 -0.012074 4.2e-05 0 -0.011753 0 2650 
289 1 -0.00128565 0.00976043 -0.0122702 0.000116 -0.0188061 -0.000940224 -0.0594549 2650 
1423 1 -0.00145 0.0102673 -0.012526 4.2e-05 0 -0.011753 0 2650 
3106 1 -0.00717052 0.0117619 -0.0122122 0.000423 -0.042507 0.0242048 -0.0146805 2650 
1802 1 -0.00415561 0.0124599 -0.012015 0.000423 0.00500259 -0.000364755 -0.0111755 2650 
2205 1 -0.00510642 0.0132763 -0.0120272 0.000656 -0.00206311 0.000112593 -0.00429342 2650 
1143 1 -0.000852514 0.0144125 -0.0124935 0.000423 0.0070315 0.0110531 -0.00616027 2650 
675 1 -0.0051074 0.0210843 -0.0123547 0.000423 -0.0171714 0.0807922 0.0289201 2650 
2413 1 -0.00877431 -0.00279177 -0.0114039 4.2e-05 -0.0826713 -0.0311639 0.0536157 2650 
3505 1 -0.006952 -0.00281165 -0.011235 4.2e-05 0 -0.011753 0 2650 
1022 1 -0.00210186 -0.00293247 -0.0114735 0.000423 -0.0575052 0.0478125 -0.126603 2650 
440 1 -0.00061 -0.00150965 -0.011485 4.2e-05 0 -0.011753 0 2650 
2939 1 -0.00936331 0.000106488 -0.011384 0.000116 -0.00341769 -0.0275913 0.0148239 2650 
3200 1 -0.00829665 0.000279539 -0.011419 0.000423 -0.0275514 -0.0115593 0.0194145 2650 
1063 1 -0.009531 0.00221635 -0.011683 0.000116 0 -0.011753 0 2650 
3894 1 -0.005583 0.00166135 -0.011098 0.000116 0 -0.011753 0 2650 
3477 1 -0.00991269 0.00276788 -0.0114353 0.000116 0.0616358 -0.0139442 -0.0219299 2650 
1595 1 -0.00791317 0.00289593 -0.011339 0.000423 -0.0081111 0.00198047 0.0261702 2650 
2062 1 -0.00615089 0.0029878 -0.0114334 0.000116 -0.0517879 -0.0811336 0.00337392 2650 
2279 1 -0.0120088 0.0037516 -0.0111142 0.000116 -0.0158908 0.0502304 0.00803902 2650 
1125 1 -0.00574519 0.00321024 -0.01175 0.000423 -0.0443086 0.0114405 0.0272453 2650 
1192 1 -0.00496317 0.00345347 -0.0117324 0.000116 -0.0160738 0.0171838 -0.0228619 2650 
2294 1 -0.004894 0.00389735 -0.011565 0.000116 0 -0.011753 0 2650 