ITEM: TIMESTEP
6316830
ITEM: NUMBER OF ATOMS
4365
ITEM: BOX BOUNDS ff ff ff
-0.15 0.15
-0.15 0.06
-0.15 0.15
ITEM: ATOMS id type x y z radius vx vy vz density 
4353 1 -0.0842046 -0.0219691 0.0358876 0.000116 -3.647 -0.291327 10.3756 2650 
3845 1 -0.0209924 -0.0457945 -0.0650374 0.000656 -6.8716 0.0767414 2.20141 2650 
2708 1 -0.0361655 -0.0590933 -0.0586262 0.000116 -3.57992 0.417245 2.20117 2650 
1471 1 -0.0462 -0.0458749 -0.0506732 0.000423 -3.85045 -0.693144 3.43184 2650 
2201 1 -0.0484893 -0.0464971 -0.0481637 0.000656 -4.28085 0.141353 4.38878 2650 
3779 1 -0.0500712 -0.0479513 -0.0468458 0.000423 -3.20323 0.054899 3.53353 2650 
1256 1 -0.0551839 -0.0474321 -0.0407156 0.000423 -2.45035 -0.955334 3.30693 2650 
2256 1 -0.0661827 -0.0454355 -0.019101 0.000116 -1.41632 0.362915 4.86303 2650 
3957 1 -0.0668661 -0.0456904 -0.0141439 0.000656 -1.25776 0.00370431 6.01935 2650 
1856 1 -0.0675831 -0.055322 -0.0133249 0.000116 -0.947008 -0.217378 4.7865 2650 
482 1 -0.0685475 -0.0580456 0.00204882 0.000423 0.150907 -0.103117 5.72644 2650 
2487 1 -0.0666001 -0.046982 0.0175907 0.000116 1.36616 0.0635243 5.22084 2650 
4037 1 -0.0524398 -0.0500621 0.0446676 0.000116 3.65454 -0.692144 4.30783 2650 
2703 1 -0.0319436 -0.0564557 0.061029 0.000116 5.04445 -0.355007 2.6315 2650 
3945 1 -0.0308064 -0.0471078 0.0616939 4.2e-05 8.39111 -0.339411 4.19726 2650 
2087 1 -0.0293111 -0.0513805 0.0624182 4.2e-05 4.47568 -0.914876 2.17438 2650 
3266 1 -0.0149203 -0.0462341 0.0672488 0.000116 2.50364 -3.33311 0.525495 2650 
2317 1 -0.00406919 -0.0454901 0.068225 0.000656 7.20475 0.1131 0.472129 2650 
3399 1 -0.0039713 -0.0327482 -0.0688429 4.2e-05 -6.79498 1.06668 0.393606 2650 
747 1 -0.00283617 -0.0302143 -0.0688255 0.000116 -4.00696 0.734298 0.157169 2650 
3040 1 -0.000133513 -0.0194407 -0.0688837 0.000116 -5.65138 -0.302741 0.0277169 2650 
3516 1 -0.00229832 -0.0362272 -0.0683066 0.000656 -6.22863 0.231229 0.208313 2650 
4308 1 -0.00180308 -0.031601 -0.068553 0.000423 -5.43049 0.391897 0.126985 2650 
355 1 -0.00247816 -0.0285336 -0.0685332 0.000423 -5.40416 -0.0815112 0.173816 2650 
3431 1 -0.00397466 -0.0282706 -0.0684626 0.000423 -5.33815 -0.146989 0.304194 2650 
649 1 -0.0114426 -0.0228861 -0.0679266 0.000116 -7.54425 -0.450686 1.26713 2650 
1499 1 -0.0104054 -0.0205279 -0.0680942 0.000116 -5.52317 0.434207 0.871598 2650 
3069 1 -0.00934264 -0.0189054 -0.068322 4.2e-05 -5.00578 0.357416 0.672172 2650 
2768 1 -0.00668386 -0.0163042 -0.0682519 0.000423 -5.7872 0.292991 0.581405 2650 
1058 1 -0.00802958 -0.0129175 -0.0684144 0.000116 -3.56051 -0.373857 0.425235 2650 
4150 1 -0.0109624 -0.0116787 -0.0680063 0.000116 -4.2538 0.233286 0.671351 2650 
3375 1 -0.00874841 -0.0115966 -0.0683266 0.000116 -4.05102 0.25751 0.509377 2650 
239 1 -0.0101106 -0.0288298 -0.0678284 0.000423 -5.75864 -0.0952753 0.831392 2650 
3090 1 -0.0131613 -0.0283911 -0.067303 0.000423 -4.1931 -0.669547 0.805051 2650 
1825 1 -0.0153414 -0.0271318 -0.0671528 0.000116 -4.65769 0.76807 1.09121 2650 
1816 1 -0.012602 -0.0269672 -0.0677218 0.000116 -4.40525 0.0840941 0.857999 2650 
3522 1 -0.0105707 -0.0241426 -0.0677579 0.000423 -6.13924 0.0942579 0.967548 2650 
577 1 -0.0132622 -0.0215547 -0.0672834 0.000423 -5.60754 -0.275818 1.09438 2650 
3329 1 -0.0136486 -0.0203707 -0.0672065 0.000423 -7.25403 0.432245 1.46695 2650 
2559 1 -0.0102194 -0.0137385 -0.0678126 0.000423 -5.24515 -0.17256 0.781767 2650 
791 1 -0.00999274 -0.00947031 -0.0678463 0.000423 -3.93505 -0.135208 0.592499 2650 
2192 1 -0.0128177 -0.00761442 -0.0677565 4.2e-05 -8.81829 -0.338752 1.66825 2650 
169 1 -0.0134017 -0.00693982 -0.0675681 0.000116 -5.2153 0.157114 1.03035 2650 
3691 1 -0.0126257 -0.00558376 -0.0677176 0.000116 -4.7048 0.341008 0.886497 2650 
3444 1 -0.0173377 -0.0308564 -0.0663434 0.000423 -4.50972 -0.0278602 1.16288 2650 
4035 1 -0.0175147 -0.0280285 -0.0666149 0.000116 -4.64599 0.468758 1.21812 2650 
1990 1 -0.0149946 -0.0255255 -0.066681 0.000656 -6.08079 -0.109258 1.35873 2650 
4320 1 -0.0167321 -0.0248804 -0.0665038 0.000423 -5.33281 0.0251892 1.33506 2650 
2242 1 -0.0144641 -0.0169241 -0.0670345 0.000423 -5.99122 0.337066 1.28631 2650 
1410 1 -0.0171316 -0.01647 -0.0667191 0.000116 -4.92495 -0.0826587 1.3088 2650 
1787 1 -0.0168056 -0.0157565 -0.0664841 0.000423 -5.08004 -0.269271 1.26719 2650 
921 1 -0.0171191 -0.0145178 -0.0664056 0.000423 -5.55219 0.0544155 1.4032 2650 
1838 1 -0.0179941 -0.0107999 -0.0664907 0.000116 -3.29057 -0.208222 0.830972 2650 
3817 1 -0.0163875 -0.00857162 -0.0669054 0.000116 -5.56336 0.329282 1.38295 2650 
1568 1 -0.0202451 -0.0373639 -0.065521 0.000423 -4.88136 -0.750463 1.58708 2650 
1638 1 -0.0188674 -0.0353311 -0.0662459 0.000116 -5.48647 -0.419384 1.4828 2650 
2210 1 -0.0167484 -0.0339632 -0.0662553 0.000656 -4.33832 -0.28715 1.0429 2650 
4056 1 -0.0194236 -0.0235061 -0.0655247 0.000656 -5.46071 0.0968767 1.61605 2650 
2340 1 -0.0189452 -0.0214016 -0.0659091 0.000423 -5.41419 0.084982 1.59307 2650 
2010 1 -0.0183357 -0.0201876 -0.066082 0.000423 -5.79443 0.0904632 1.60361 2650 
2480 1 -0.0197033 -0.0183971 -0.0660055 0.000116 -4.39815 -0.140812 1.33062 2650 
1585 1 -0.0187534 -0.0177099 -0.065964 0.000423 -4.38633 -0.0815004 1.26137 2650 
1177 1 -0.0199166 -0.00662588 -0.0659285 0.000116 -3.85874 0.169723 1.09451 2650 
2538 1 -0.017529 -0.00689506 -0.0660526 0.000656 -3.57453 -0.0481166 0.94513 2650 
353 1 -0.0214052 -0.0263014 -0.0651368 0.000423 -5.3158 0.138593 1.64445 2650 
2921 1 -0.0230619 -0.0223388 -0.0649056 0.000116 -5.2484 0.595134 1.87741 2650 
2705 1 -0.0218373 -0.0209261 -0.0653308 0.000116 -5.04639 0.507375 1.67171 2650 
1958 1 -0.0219593 -0.0196037 -0.0652901 0.000116 -4.99851 -0.243082 1.68968 2650 
3000 1 -0.0232863 -0.038934 -0.0645006 0.000423 -5.16571 -0.901276 1.8789 2650 
2626 1 -0.025321 -0.0335865 -0.0640599 0.000116 -4.08227 0.533288 1.6031 2650 
2169 1 -0.0255128 -0.0222335 -0.0639837 0.000116 -3.83761 -0.485968 1.55938 2650 
4311 1 -0.0226886 -0.0141184 -0.0646784 0.000423 -5.03267 0.0847984 1.77913 2650 
849 1 -0.0241783 -0.00022622 -0.0645006 0.000116 -4.13537 -0.239075 1.57719 2650 
3330 1 -0.0254107 -0.0275354 -0.0636951 0.000423 -5.32537 0.0275666 2.13825 2650 
3204 1 -0.0261536 -0.0198317 -0.0633949 0.000423 -5.48381 0.00639078 2.2392 2650 
1050 1 -0.0260902 -0.019375 -0.0637287 0.000116 -6.63591 1.60832 2.97269 2650 
862 1 -0.0274101 -0.0189478 -0.0631956 0.000116 -3.24982 -0.216526 1.44012 2650 
2042 1 -0.0279427 -0.0230858 -0.062962 0.000116 -3.04874 -1.17765 1.33487 2650 
1960 1 -0.0280824 -0.0213245 -0.0628996 0.000116 -6.12 -0.294157 2.73433 2650 
2147 1 -0.0292533 -0.0205445 -0.0623641 0.000116 -5.02773 -0.938348 2.34144 2650 
3741 1 -0.0285241 -0.0175587 -0.0623643 0.000423 -5.15455 -0.109166 2.32507 2650 
2681 1 -0.0284991 -0.0165667 -0.0623753 0.000423 -4.66196 0.187671 2.16997 2650 
2291 1 -0.0280295 -0.0123123 -0.0629235 0.000116 -5.01692 0.36646 2.25123 2650 
4297 1 -0.0290262 -0.0183676 -0.0621319 0.000423 -5.15313 -0.071993 2.40761 2650 
2832 1 -0.0306273 -0.0107667 -0.061701 0.000116 -4.60996 0.549685 2.28173 2650 
4288 1 -0.0303611 -0.0416571 -0.061491 0.000423 -4.72973 0.106896 2.32896 2650 
1377 1 -0.0322451 -0.0195732 -0.0608709 0.000116 -3.76356 -0.0313086 2.00612 2650 
658 1 -0.0318985 -0.0104824 -0.0611374 4.2e-05 -5.44713 1.6893 2.87166 2650 
3348 1 -0.0318357 -0.00274193 -0.0610853 0.000116 -4.71456 0.00133049 2.45762 2650 
208 1 -0.033383 -0.0185299 -0.0602542 0.000116 -4.36015 -0.549056 2.39141 2650 
1174 1 -0.0335568 -0.0132852 -0.0601582 0.000116 -3.23565 -0.129691 1.78427 2650 
3936 1 -0.0340623 -0.0147167 -0.0599583 4.2e-05 -3.05091 -0.172321 1.79014 2650 
365 1 -0.0336857 -0.0105094 -0.0597352 0.000423 -4.61974 -0.0698152 2.58283 2650 
3863 1 -0.0355334 -0.0392306 -0.058654 0.000423 -5.25317 -0.1269 3.15863 2650 
3519 1 -0.0345115 -0.0391338 -0.0589916 0.000656 -5.28255 -0.00162378 3.0654 2650 
2371 1 -0.0358486 -0.0184188 -0.0588202 0.000116 -3.15121 -0.115567 1.90171 2650 
2246 1 -0.0349969 -0.0140316 -0.0589761 0.000423 -4.81855 0.284068 2.88869 2650 
2588 1 -0.0364711 -0.0126279 -0.0584372 0.000116 -3.73162 0.113563 2.34544 2650 
1364 1 -0.0351718 -0.00957283 -0.0588726 0.000423 -3.04621 -0.174965 1.81865 2650 
4147 1 -0.0375537 -0.0232147 -0.0577461 0.000116 -5.57221 -0.175375 3.62219 2650 
4133 1 -0.0380808 -0.0357431 -0.0573992 0.000116 -4.27407 -0.239719 2.84694 2650 
4074 1 -0.0389976 -0.00435508 -0.0564097 0.000423 -3.48958 0.0137373 2.36071 2650 
2245 1 -0.0396147 -0.0331108 -0.0559751 0.000423 -4.35282 0.138759 3.06199 2650 
4128 1 -0.0411132 -0.021805 -0.0552685 0.000116 -4.21905 -0.0668456 3.14208 2650 
1326 1 -0.0407421 -0.0345661 -0.054864 0.000656 -3.84835 -0.277781 2.78223 2650 
2118 1 -0.0411154 -0.0207037 -0.0548867 0.000423 -5.85984 0.0741729 4.36349 2650 
4016 1 -0.0420308 -0.0173705 -0.0545719 0.000116 -6.22758 0.260431 4.7751 2650 
1202 1 -0.042061 -0.00705864 -0.05463 4.2e-05 -3.55521 0.0807535 2.79235 2650 
753 1 -0.0432123 -0.0392291 -0.0536398 0.000116 -3.84324 -0.501329 3.10663 2650 
1323 1 -0.0433142 -0.0202957 -0.0528684 0.000656 -3.98852 -0.106598 3.40999 2650 
2148 1 -0.0446466 -0.0385159 -0.0524456 0.000116 -3.29358 0.24067 2.80749 2650 
250 1 -0.0445577 -0.0261502 -0.0521162 0.000423 -3.94944 0.465722 3.48621 2650 
164 1 -0.0438159 -0.0256654 -0.052737 0.000423 -4.2539 0.28338 3.52408 2650 
981 1 -0.0465037 -0.0378483 -0.0509174 4.2e-05 -2.47575 0.189271 2.24916 2650 
1317 1 -0.047064 -0.00683212 -0.0503996 4.2e-05 -2.42843 -0.131404 2.2654 2650 
338 1 -0.0474628 -0.0246554 -0.0491765 0.000656 -4.16421 0.29663 4.06132 2650 
1863 1 -0.047948 -0.0130642 -0.0495595 4.2e-05 -2.43516 -0.204942 2.37907 2650 
1130 1 -0.0473649 -0.00606182 -0.0495928 0.000423 -3.22259 -0.0946955 3.04655 2650 
1278 1 -0.0500691 -0.0224789 -0.0473083 0.000116 -4.0285 0.249009 4.26914 2650 
1275 1 -0.0509523 -0.0296009 -0.0463567 0.000116 -3.333 0.215383 3.65399 2650 
3260 1 -0.0512989 -0.0292776 -0.0459732 0.000116 -3.32432 -0.665451 3.70502 2650 
2421 1 -0.0502756 -0.0235245 -0.0462976 0.000656 -4.07862 0.0940329 4.47428 2650 
15 1 -0.0515367 -0.0132928 -0.0452429 0.000423 -2.38626 -0.473505 2.71334 2650 
1752 1 -0.053147 -0.00653483 -0.0439388 4.2e-05 -2.08967 -0.141633 2.52201 2650 
2779 1 -0.0537909 -0.0198422 -0.0425384 0.000423 -3.39073 0.0196161 4.2896 2650 
588 1 -0.055132 -0.0147386 -0.0407856 0.000423 -2.65563 -0.31761 3.63869 2650 
2413 1 -0.0421281 -0.00422949 -0.0404143 4.2e-05 -6.42413 -0.111023 -6.12924 2650 
2274 1 -0.0562233 -0.0445424 -0.0397985 0.000116 -2.26888 0.578326 3.24247 2650 
2501 1 -0.0565674 -0.0136673 -0.0393004 0.000116 -2.57905 -0.216855 3.75344 2650 
3351 1 -0.0565736 -0.0107439 -0.0392964 0.000116 -1.93879 -0.218412 2.73613 2650 
3256 1 -0.0579978 -0.0179593 -0.03716 0.000116 -2.48145 -0.951874 3.86901 2650 
1500 1 -0.0580248 -0.0152267 -0.0371228 0.000116 -1.78949 0.259907 3.05834 2650 
1436 1 -0.0577072 -0.0202397 -0.036622 0.000656 -3.37542 0.122077 5.30072 2650 
3725 1 -0.0582311 -0.0150692 -0.0369316 4.2e-05 -1.88166 -0.219183 2.85641 2650 
8 1 -0.0580391 -0.0347502 -0.0360914 0.000656 -3.34663 -0.0656857 5.38141 2650 
3073 1 -0.0595571 -0.039635 -0.034758 4.2e-05 -2.08342 -0.495186 3.5625 2650 
4264 1 -0.0598257 -0.00953678 -0.0342603 4.2e-05 -2.10415 -0.0623549 3.72341 2650 
4376 1 -0.048712 -0.0218756 -0.0334831 4.2e-05 0.369287 -1.11292 7.84294 2650 
908 1 -0.0604697 -0.033545 -0.0323469 0.000423 -3.10652 -0.382043 5.93255 2650 
132 1 -0.0608203 -0.0340498 -0.0316493 0.000423 -3.19488 -0.365879 5.92572 2650 
3314 1 -0.0606557 -0.0282932 -0.0319856 0.000423 -2.90547 0.259326 5.26212 2650 
404 1 -0.062471 -0.0244644 -0.0290072 0.000116 -2.71068 -0.14468 5.90188 2650 
2251 1 -0.0625916 -0.0398516 -0.0280216 0.000423 -2.23829 0.123812 4.96679 2650 
2028 1 -0.062771 -0.0331894 -0.0276016 0.000423 -1.98513 0.0202941 4.41018 2650 
1407 1 -0.0631012 -0.0299192 -0.0275999 0.000116 -1.94872 0.270115 4.49718 2650 
1417 1 -0.0632125 -0.0143899 -0.0273718 0.000116 -2.03489 -0.0538903 4.76591 2650 
4325 1 -0.0636824 -0.0221782 -0.025443 0.000423 -2.31745 0.0783744 5.77073 2650 
2367 1 -0.0641288 -0.0175392 -0.0251489 0.000116 -2.44116 0.74078 6.2221 2650 
2544 1 -0.0636111 -0.0147519 -0.0256249 0.000423 -1.92724 0.151579 4.75033 2650 
670 1 -0.0638017 -0.0170042 -0.0245026 0.000656 -1.86987 0.139981 4.87479 2650 
3783 1 -0.0220022 -0.00622359 -0.0251994 0.000423 -3.32955 -0.543143 -3.81663 2650 
2819 1 -0.0645333 -0.00528627 -0.0240565 0.000116 -1.08249 -0.262522 3.16867 2650 
625 1 -0.0649983 -0.0191915 -0.0228083 0.000116 -2.56937 0.221228 7.33155 2650 
2527 1 -0.0652671 -4.20535e-05 -0.022257 4.2e-05 -1.64501 0.000829637 4.80326 2650 
3989 1 -0.0650504 -0.0201933 -0.0217125 0.000423 -1.60345 -0.213311 4.76053 2650 
3891 1 -0.0650852 -0.00873552 -0.0216101 0.000423 -1.27392 -0.152648 3.84119 2650 
2765 1 -0.0653356 -0.0417735 -0.0208369 0.000423 -1.64715 -0.0813522 5.21086 2650 
4132 1 -0.066871 -0.0253933 -0.0165305 0.000116 -1.17471 -0.569048 4.80628 2650 
3815 1 -0.0667881 -0.012221 -0.0168655 0.000116 -1.10077 1.05674 4.33407 2650 
606 1 -0.000183 0.00297901 -0.016592 0.000116 0 -0.011753 0 2650 
188 1 -0.000929247 0.0101144 -0.0167574 0.000116 -0.0148612 0.0228045 0.00418427 2650 
2713 1 -0.000758777 0.0104926 -0.0167062 0.000116 0.00037122 0.035974 0.00535071 2650 
4231 1 -0.000253647 0.0168086 -0.0167693 0.000116 -0.0134934 0.0153003 0.0304581 2650 
2714 1 -0.0351745 -0.010914 -0.0159806 0.000116 -4.98965 -0.952056 -2.29068 2650 
1030 1 -0.0069233 -0.00548072 -0.016166 0.000423 -0.44671 -1.2159 -0.839449 2650 
1022 1 -0.00329149 -0.00150241 -0.0160819 0.000423 0.00547055 0.0207929 0.0819064 2650 
545 1 -0.00225938 -0.00061425 -0.0162809 4.2e-05 0.0164356 0.0574887 0.091312 2650 
736 1 -0.003999 0.000806054 -0.016346 0.000116 -0.0307431 -0.0170391 0.0144389 2650 
30 1 -0.000161898 0.000920955 -0.0163802 0.000423 -0.016733 -0.0244017 -0.0123914 2650 
150 1 -0.00407682 0.00182283 -0.0160072 0.000423 -0.0551283 0.0175519 0.0264808 2650 
1679 1 -0.00362677 0.00266432 -0.0161591 0.000423 0.00151832 0.0192562 -0.0111978 2650 
2013 1 -0.0027612 0.00278445 -0.0160907 0.000423 -0.0098556 0.000711585 0.000927668 2650 
2793 1 -0.00188153 0.00281679 -0.0159161 0.000423 0.0182843 0.0982975 0.0184189 2650 
2283 1 -0.00264961 0.00369089 -0.0159245 0.000116 -0.0318858 -0.01081 -0.0228231 2650 
2301 1 -0.004222 0.00475201 -0.016305 4.2e-05 0 -0.011753 0 2650 
3121 1 -0.00275586 0.0050872 -0.016202 0.000423 0.0292552 0.00121421 5.81941e-05 2650 
978 1 -0.00472161 0.0067752 -0.0159314 0.000116 0.015313 -0.00383775 -0.0151954 2650 
302 1 -4.89989e-05 0.00680268 -0.0161054 0.000116 0.0171051 0.0203877 0.0103663 2650 
3934 1 -0.001977 0.00774101 -0.016218 0.000116 0 -0.011753 0 2650 
1617 1 -0.00307231 0.0098143 -0.0162332 0.000116 0.0304013 0.00375314 0.0183235 2650 
2924 1 -0.000956523 0.0116337 -0.0162638 0.000116 -0.059039 0.0353164 0.00422158 2650 
3573 1 -0.000610105 0.0271757 -0.0159287 0.000116 0.222562 -0.254179 0.0393607 2650 
1173 1 -0.00214769 0.0387499 -0.0162671 0.000116 -0.136556 0.342033 -0.0293067 2650 
4245 1 -0.00445547 0.0434442 -0.0161776 0.000116 -0.108278 0.145073 0.0575558 2650 
1357 1 -0.00168345 0.0548574 -0.0163523 0.000423 0.0688427 0.283755 -0.00440331 2650 
2593 1 -0.067232 -0.0215835 -0.014995 0.000116 -1.08555 -0.503148 4.80833 2650 
2189 1 -0.0672901 -0.0191091 -0.0150735 4.2e-05 -1.38506 -0.134453 6.15087 2650 
1991 1 -0.00551667 0.000490717 -0.0151045 0.000656 -0.0197706 -0.00214867 0.00868857 2650 
3239 1 -0.00385492 0.00185331 -0.0154953 0.000116 -0.0248133 -0.00752354 0.0120924 2650 
676 1 -0.00294837 0.00194821 -0.0153131 0.000423 -0.0247905 0.00447638 0.0282863 2650 
3637 1 -0.00394197 0.00242781 -0.0153291 0.000423 -0.010908 0.0125472 -0.00602406 2650 
2399 1 -0.002418 0.00319301 -0.015541 0.000116 0 -0.011753 0 2650 
1388 1 -0.00154616 0.00524356 -0.0156928 0.000116 -0.039288 0.0021603 0.0169103 2650 
2438 1 -0.00558347 0.00671663 -0.0152691 0.000423 -0.00364828 0.010897 0.00465106 2650 
963 1 -0.00630355 0.0071158 -0.0155629 0.000116 -0.0190241 0.000952492 0.0269479 2650 
1219 1 -0.000450212 0.00743367 -0.0156104 0.000656 0.0133734 0.0239605 0.00857101 2650 
2969 1 -0.00154142 0.00844645 -0.0150917 0.000656 -0.00770999 0.0181957 -4.77754e-05 2650 
3830 1 -0.006879 0.00929301 -0.015411 4.2e-05 0 -0.011753 0 2650 
1620 1 -0.00232077 0.00884271 -0.0157452 0.000116 0.0529387 0.0514306 -0.00503745 2650 
86 1 -0.00207266 0.00900778 -0.0150546 0.000116 -0.0196067 0.0126222 0.000798653 2650 
3177 1 -0.00104643 0.00882027 -0.0154277 4.2e-05 0.00917698 -0.00185525 -0.00666376 2650 
1483 1 -0.000333743 0.00883145 -0.0154105 0.000423 -0.0010087 0.0213686 -0.00667363 2650 
233 1 -0.00477372 0.00965943 -0.0150644 0.000423 0.000342891 -0.00976437 -0.0328705 2650 
1228 1 -0.00147456 0.00961437 -0.0150048 0.000423 -0.0026547 0.0243513 0.000515369 2650 
938 1 -0.000879977 0.0102126 -0.0154189 0.000116 -0.0031777 -0.00896602 -0.000837518 2650 
371 1 -0.000447078 0.00989233 -0.0153618 0.000423 0.000789847 -0.00607499 -0.00615683 2650 
3644 1 -0.000990855 0.0125016 -0.0153341 0.000423 -0.00432743 0.00711996 -0.0325914 2650 
2643 1 -0.000713879 0.0263269 -0.0150551 0.000656 -0.0823633 0.0688822 0.0201377 2650 
3671 1 -0.0670339 -0.0168121 -0.014472 0.000423 -1.09619 0.0533013 5.00307 2650 
1593 1 -0.0670081 -0.0145412 -0.0145886 0.000423 -1.28706 0.0333799 5.7996 2650 
4380 1 -0.0554127 -0.00523726 -0.0147391 4.2e-05 -8.64162 -0.162681 -2.30347 2650 
2817 1 -0.00166129 -0.0021837 -0.0143243 0.000116 0.0100645 -0.056664 0.00630574 2650 
2827 1 -0.00537867 -0.00152131 -0.014228 0.000116 -0.0201753 -0.0226203 0.0017234 2650 
1053 1 -0.007469 -0.000648985 -0.014946 0.000116 0 -0.011753 0 2650 
509 1 -0.00743772 -0.000232666 -0.0146578 0.000116 -0.00521486 0.00944493 -0.0325939 2650 
623 1 -0.00658115 0.000416516 -0.0149743 0.000116 0.0135085 -0.00577665 0.0160157 2650 
2922 1 -0.00672711 0.00144085 -0.0143289 0.000116 -0.00925852 -0.000802711 0.00675368 2650 
220 1 -0.00360234 0.00269069 -0.0147382 4.2e-05 0.00197382 0.00663681 0.00671825 2650 
1032 1 -0.00789874 0.00377837 -0.0143365 0.000423 0.0299121 -0.00820922 0.0127278 2650 
2918 1 -0.0080588 0.00523515 -0.0143535 0.000116 -0.0132236 0.0205789 -0.0380223 2650 
2313 1 -0.0047083 0.00609064 -0.0149983 0.000656 0.0121795 0.0249345 0.010824 2650 
3365 1 -0.002315 0.00561901 -0.014552 0.000116 0 -0.011753 0 2650 
581 1 -0.00561293 0.00852517 -0.0144017 0.000423 -0.000593495 -0.0101803 -0.00423903 2650 
1827 1 -0.00714505 0.00955781 -0.0148702 0.000116 -0.0386186 0.00754243 -0.0442276 2650 
3669 1 -0.000227173 0.0105526 -0.0147114 0.000423 0.00220454 -0.00743356 -0.00383523 2650 
3007 1 -0.00150071 0.011331 -0.0143462 0.000423 -0.0135196 -0.00505473 -0.0280609 2650 
478 1 -0.00757986 0.0150941 -0.0145659 0.000423 0.0184535 0.00116934 0.020279 2650 
568 1 -0.00170695 0.0171892 -0.0148824 0.000423 0.0646767 0.0324089 0.0265592 2650 
142 1 -0.0051884 0.0239061 -0.0144329 0.000423 -0.0600809 0.0373384 0.0570253 2650 
913 1 -0.00136686 0.0257782 -0.0143166 0.000423 -0.0558551 0.0664181 0.070885 2650 
831 1 -0.0675936 -0.0303168 -0.0132715 0.000116 -1.33976 -1.98968 6.8469 2650 
3649 1 -0.0672677 -0.0190145 -0.0133403 0.000423 -1.00964 -0.164924 5.18237 2650 
1924 1 -0.0672666 -0.0179251 -0.0133466 0.000423 -1.01605 -0.0733378 5.08492 2650 
4068 1 -0.0671297 -0.0154491 -0.0140199 0.000423 -1.03653 -0.0355254 4.84484 2650 
4019 1 -0.0675804 -0.0122302 -0.0133382 0.000116 -0.797459 0.202878 4.07417 2650 
3153 1 -0.000749556 -0.00318037 -0.0139711 0.000116 0.0575311 -0.0297429 -0.0490481 2650 
1468 1 -0.004819 -0.00308212 -0.0141869 0.000423 -0.0197001 -0.0470204 -0.0326717 2650 
2172 1 -0.0071261 -0.00162013 -0.0137699 0.000116 0.0554355 0.00150652 -0.0523356 2650 
222 1 -0.00247247 -0.000276695 -0.0141631 0.000656 -0.0189906 -0.0240038 0.0410277 2650 
2332 1 -0.00447396 2.74068e-05 -0.0141546 0.000423 -0.0114447 -0.00779769 0.00753018 2650 
3733 1 -0.00683857 0.00137953 -0.0135206 0.000656 -0.023221 0.0173181 0.0154659 2650 
3587 1 -0.00627787 0.00370203 -0.0141842 0.000116 -0.0152422 -0.0151231 -0.00566973 2650 
4165 1 -0.00517309 0.00360862 -0.0136195 0.000656 -6.3943e-05 -0.032131 0.00827285 2650 
2512 1 -0.00925256 0.00406392 -0.0136367 0.000116 0.018779 -0.0192413 0.00230208 2650 
1171 1 -0.00850698 0.00403591 -0.0141134 0.000116 0.0131753 -0.0110464 0.0150896 2650 
2322 1 -0.00846941 0.00708787 -0.013551 0.000656 -0.0104266 -0.0115398 0.00242577 2650 
3950 1 -0.00713135 0.00633425 -0.0141394 0.000656 0.000588401 -0.011021 0.0254098 2650 
1288 1 -0.002467 0.00692201 -0.014044 0.000116 0 -0.011753 0 2650 
4227 1 -0.000486709 0.0067441 -0.0136688 0.000116 -0.00921828 -0.0161692 0.0154311 2650 
3515 1 -0.00732975 0.00766515 -0.0140674 0.000656 -0.0123818 -0.00699382 0.00355907 2650 
1618 1 -0.00883754 0.00805925 -0.0141614 0.000116 -0.0374153 0.000761065 0.00796034 2650 
4190 1 -0.00847224 0.00857631 -0.0141023 0.000423 -0.00917725 0.00128738 0.00658072 2650 
1769 1 -0.00668849 0.00866303 -0.0134863 0.000656 -0.0131886 0.00299208 -0.00815407 2650 
2222 1 -0.000519363 0.0079384 -0.014186 0.000423 -0.00549102 -0.00568171 -0.00117535 2650 
4257 1 -0.00808602 0.0093907 -0.0140208 0.000116 0.0101268 -0.0416798 0.0036163 2650 
1476 1 -0.006941 0.00972201 -0.013435 0.000423 0 -0.011753 0 2650 
1986 1 -0.00281495 0.0100313 -0.0136275 0.000656 0.00762539 0.0149956 0.0116892 2650 
289 1 -0.00183822 0.00973281 -0.0140171 0.000116 -0.0188061 -0.000940224 -0.0594549 2650 
1409 1 -0.00044 0.010702 -0.013868 0.000116 0 -0.011753 0 2650 
959 1 -0.00910356 0.0140442 -0.0137854 0.000116 -0.0723779 0.0623805 -0.0339909 2650 
352 1 -0.00601239 0.0435686 -0.0138674 0.000423 0.0275371 -0.163578 -0.159114 2650 
1944 1 -0.0216462 -0.00408349 -0.0131555 0.000116 -3.32272 -0.0985362 -2.01938 2650 
330 1 -0.0100644 -0.00336459 -0.0129672 4.2e-05 -0.712602 -0.0317359 -0.804831 2650 
2666 1 -0.00785435 -0.00178111 -0.0126491 0.000423 0.00506312 -0.0128769 -0.0752945 2650 
3551 1 -0.00670834 0.000339913 -0.012951 0.000423 -0.015336 0.00523015 0.00637389 2650 
4126 1 -0.00517299 0.000262219 -0.0132017 0.000116 -0.0261531 0.0084042 0.00402279 2650 
2525 1 -0.004063 0.00114901 -0.013231 4.2e-05 0 -0.011753 0 2650 
2619 1 -0.005851 0.00196501 -0.012854 0.000116 0 -0.011753 0 2650 
3880 1 -0.010277 0.00288101 -0.012913 0.000423 0 -0.011753 0 2650 
2609 1 -0.00886 0.00268901 -0.013248 0.000116 0 -0.011753 0 2650 
3917 1 -0.003984 0.00345001 -0.012703 0.000116 0 -0.011753 0 2650 
2059 1 -0.003583 0.00365901 -0.012756 0.000116 0 -0.011753 0 2650 
234 1 -0.000524974 0.0035433 -0.0132155 0.000423 0.0351287 -0.0167305 0.0264562 2650 
2912 1 -0.00559583 0.00500256 -0.013226 0.000116 0.00196064 0.0151142 0.00117299 2650 
3322 1 -0.00346142 0.00479226 -0.012669 0.000423 0.00110678 0.0140263 0.0123959 2650 
3446 1 -0.00223815 0.00548695 -0.0127043 0.000423 0.014297 -0.016402 -0.00312272 2650 
4078 1 -0.00945622 0.00608489 -0.0126852 0.000423 -0.0196946 -0.00953845 0.00130892 2650 
450 1 -0.006215 0.00629641 -0.0130859 0.000656 0.0112424 0.0469319 0.00733295 2650 
104 1 -0.00309507 0.00613844 -0.0129739 4.2e-05 -0.00674979 0.0150481 0.0116551 2650 
1427 1 -0.002948 0.00599001 -0.013376 4.2e-05 0 -0.011753 0 2650 
2913 1 -0.00798082 0.0064421 -0.0133714 0.000116 -0.0140945 -0.0228944 -0.00540615 2650 
3259 1 -0.00889552 0.00741368 -0.0129162 0.000116 -0.0089878 -0.00810535 0.00538998 2650 
1237 1 -0.0098156 0.00814747 -0.0132781 0.000423 0.0126581 0.0150214 -0.0115674 2650 
1795 1 -0.00871116 0.00798145 -0.0129968 0.000423 -0.00363334 -0.00849357 0.00372031 2650 
1250 1 -0.00807562 0.00842609 -0.0133394 0.000423 -0.00762505 -0.0148325 -0.0156082 2650 
508 1 -0.0100605 0.00919619 -0.0132181 0.000116 -0.0281885 0.0711476 0.0146726 2650 
2483 1 -0.00882875 0.00906185 -0.0129426 0.000116 0.0222317 -0.00887276 -0.000700143 2650 
205 1 -0.000744 0.00870601 -0.01334 0.000116 0 -0.011753 0 2650 
1775 1 -0.00822958 0.0114711 -0.0130511 0.000423 -7.29146e-05 -0.011186 -0.000346901 2650 
949 1 -0.00687976 0.0115728 -0.0128783 0.000116 -0.0176518 0.0277962 -0.00593252 2650 
3106 1 -0.00841947 0.0124731 -0.0126435 0.000423 -0.042507 0.0242048 -0.0146805 2650 
3632 1 -0.0100177 0.0128028 -0.0131874 0.000423 -0.0216519 0.000467483 0.0139725 2650 
1143 1 -0.000645912 0.0147373 -0.0126745 0.000423 0.0070315 0.0110531 -0.00616027 2650 
3216 1 -0.00469053 0.0276679 -0.0128134 0.000423 -0.00544148 0.107266 0.0543995 2650 
2467 1 -0.000716751 0.0323709 -0.0128385 0.000423 0.0301791 0.103437 0.0421276 2650 
4023 1 -0.0446398 -0.00415197 -0.0126511 0.000116 -6.88273 -0.102694 -1.95059 2650 
2468 1 -0.00443038 -0.00162891 -0.0121262 0.000423 -0.0504222 0.0211365 0.000191011 2650 
1763 1 -0.001143 -0.00216499 -0.012442 0.000656 0 -0.011753 0 2650 
3191 1 -0.00757456 -0.000257606 -0.0125722 0.000656 -0.0197381 0.00193499 -0.0014393 2650 
1422 1 -0.003881 -0.000318985 -0.012349 4.2e-05 0 -0.011753 0 2650 
1799 1 -0.00322906 0.000487326 -0.0120558 0.000423 7.10678e-05 -0.0118308 4.63239e-05 2650 
3956 1 -0.00905311 0.00139736 -0.0123163 0.000656 -0.000640959 -0.0104529 -0.000368355 2650 
541 1 -0.00660091 0.000902156 -0.0125063 4.2e-05 -0.0143735 0.00954058 0.00936495 2650 
3389 1 -0.010415 0.00194701 -0.012026 0.000116 0 -0.011753 0 2650 
3477 1 -0.00810168 0.00235817 -0.0120796 0.000116 0.0616358 -0.0139442 -0.0219299 2650 
3201 1 -0.00641266 0.00184207 -0.0121546 0.000423 -0.00608722 0.0216696 0.0089772 2650 
3826 1 -0.009208 0.00384201 -0.012552 0.000116 0 -0.011753 0 2650 
3645 1 -0.00653157 0.00323811 -0.0122261 0.000423 -0.0357151 -0.0039173 0.0164321 2650 
411 1 -0.0106317 0.00439966 -0.0120921 0.000116 -0.00787832 -0.00657823 -8.20909e-05 2650 
2596 1 -0.0102379 0.00432713 -0.0121558 0.000116 -0.0442582 -0.0431064 0.0384975 2650 
3316 1 -0.00901069 0.00455625 -0.012427 0.000423 -0.00545668 -0.0184265 -0.00877661 2650 
1192 1 -0.00543545 0.00395838 -0.0124041 0.000116 -0.0160738 0.0171838 -0.0228619 2650 
708 1 -0.00264043 0.00432983 -0.0123135 0.000423 0.0112279 -0.00894022 0.00239788 2650 
2194 1 -0.00217917 0.00468025 -0.0124215 4.2e-05 0.00491046 0.00111596 0.00228026 2650 
1261 1 -0.00745233 0.00489833 -0.0124674 0.000423 -0.000148786 -0.00207045 -0.0014312 2650 
3362 1 -0.00265542 0.00504394 -0.0123902 0.000116 0.000350619 -0.00253681 -0.00404217 2650 
2957 1 -0.00120816 0.00492217 -0.0122657 4.2e-05 0.0205169 0.0248349 -0.000218849 2650 
3030 1 -0.001189 0.00610501 -0.012596 0.000116 0 -0.011753 0 2650 
2344 1 -0.000838134 0.00692005 -0.012559 0.000423 0.00597873 -0.023338 -0.0226217 2650 
445 1 -0.00966645 0.00724287 -0.0124106 0.000656 -0.00157651 -0.00352117 -0.00927671 2650 
4318 1 -0.00859703 0.00753373 -0.0122816 0.000423 0.000634828 -0.00541564 0.00164809 2650 
4296 1 -0.00431718 0.00727135 -0.012582 0.000423 -0.0418082 0.0388893 0.0462647 2650 
3684 1 -0.00429756 0.00789599 -0.0125604 0.000116 -0.0162792 0.0652979 0.019863 2650 
1495 1 -0.00461027 0.00776186 -0.0125215 0.000116 -0.0456305 0.0559494 0.0249272 2650 
1519 1 -0.00425979 0.00786198 -0.0118489 0.000116 -0.0659584 -0.0345951 0.00219142 2650 
2219 1 -0.00229189 0.00747866 -0.0119721 0.000423 0.0430827 0.0512131 0.0198144 2650 
3283 1 -6.38158e-05 0.00725956 -0.0119892 4.2e-05 0.0397515 0.0433617 -0.0233311 2650 
4179 1 -0.00733185 0.00833946 -0.0123727 0.000423 -0.00767678 -0.0221048 -0.00852388 2650 
3173 1 -0.004958 0.00823401 -0.012321 4.2e-05 0 -0.011753 0 2650 
1584 1 -0.00165399 0.00822188 -0.0122705 0.000423 -0.00963006 0.0395817 0.04039 2650 
2630 1 -0.001036 0.00844201 -0.012074 4.2e-05 0 -0.011753 0 2650 
4002 1 -0.000443 0.00826601 -0.01223 0.000116 0 -0.011753 0 2650 
3847 1 -0.00960063 0.00895534 -0.0125923 0.000656 0.00219565 0.014119 -0.00535201 2650 
2798 1 -0.00785148 0.00887175 -0.0119149 0.000423 0.0168646 0.022512 -0.0112906 2650 
2453 1 -0.00613524 0.00897275 -0.0123899 0.000423 0.00783944 0.0181262 -0.00771338 2650 
2092 1 -0.00383598 0.00899387 -0.0120646 0.000656 -0.0436925 0.0013821 -0.0433895 2650 
2781 1 -0.00559429 0.0101537 -0.0121371 0.000423 -0.0147005 -0.0142306 -0.0211936 2650 
1423 1 -0.00145 0.00992201 -0.012526 4.2e-05 0 -0.011753 0 2650 
1802 1 -0.00400863 0.0124492 -0.0123433 0.000423 0.00500259 -0.000364755 -0.0111755 2650 
2205 1 -0.00516704 0.0132796 -0.0121534 0.000656 -0.00206311 0.000112593 -0.00429342 2650 
1195 1 -0.0108213 0.0231412 -0.012099 0.000116 -0.00414536 0.08815 -0.0855441 2650 
1781 1 -0.0676288 -0.0300036 -0.0113611 0.000423 -0.916601 -0.0878037 5.47655 2650 
4069 1 -0.0676424 -0.029076 -0.011291 0.000423 -0.930515 -0.0179848 5.46233 2650 
2 1 -0.067348 -0.0185037 -0.011636 0.000656 -0.914544 0.273003 5.45797 2650 
2938 1 -0.00493131 -0.00405586 -0.0118588 0.000116 -0.734781 -0.11196 -1.6698 2650 
3505 1 -0.006952 -0.00315699 -0.011235 4.2e-05 0 -0.011753 0 2650 
800 1 -0.00676426 -0.00259528 -0.0111388 0.000423 -0.00429202 -0.0325333 0.0439645 2650 
4097 1 -0.00904501 -0.00218946 -0.0117724 0.000423 -0.0116536 0.00229875 0.0371095 2650 
440 1 -0.00061 -0.00185499 -0.011485 4.2e-05 0 -0.011753 0 2650 
2062 1 -0.00767254 0.000603901 -0.0113342 0.000116 -0.0517879 -0.0811336 0.00337392 2650 
3894 1 -0.005583 0.00131601 -0.011098 0.000116 0 -0.011753 0 2650 
1063 1 -0.009531 0.00187101 -0.011683 0.000116 0 -0.011753 0 2650 
756 1 -0.00493122 0.00158983 -0.0114037 0.000116 0.041834 0.0697036 0.0154272 2650 
388 1 -0.00678891 0.00242411 -0.0114198 0.000116 0.0212466 0.0335067 0.0250458 2650 
2655 1 -0.000398104 0.00309279 -0.0114062 0.000423 0.022751 -0.0344201 -0.0411756 2650 
2294 1 -0.004894 0.00355201 -0.011565 0.000116 0 -0.011753 0 2650 
2474 1 -0.0026942 0.00369663 -0.0115257 0.000423 -0.00380852 -0.00865862 -0.00797376 2650 
2285 1 -0.0112231 0.00417066 -0.0117469 0.000116 0.0175306 0.0103543 0.003719 2650 
1822 1 -0.00931222 0.00432926 -0.0111093 0.000116 -0.0361035 -0.0195415 0.0016013 2650 
3787 1 -0.00647983 0.00430722 -0.0116158 0.000116 -0.0024271 -0.00223267 -0.0195234 2650 