ITEM: TIMESTEP
11305506
ITEM: NUMBER OF ATOMS
4315
ITEM: BOX BOUNDS ff ff ff
-0.15 0.15
-0.15 0.06
-0.15 0.15
ITEM: ATOMS id type x y z radius vx vy vz density 
3603 1 -0.112378 -0.0191372 0.0163954 0.000116 -8.13108 0.120547 8.25057 2650 
1206 1 -0.0864767 -0.0381919 0.0289219 4.2e-05 -2.9408 0.376576 7.11608 2650 
1944 1 -0.115041 -0.0208858 0.0298842 0.000116 -6.48373 -0.0751046 7.70736 2650 
3753 1 -0.00275148 -0.0456328 -0.068523 0.000423 -8.01886 -0.539818 0.321425 2650 
4009 1 -0.013346 -0.0595752 -0.0675787 0.000116 -6.11134 0.148244 1.19826 2650 
3366 1 -0.0238126 -0.0474697 -0.0646371 0.000116 -11.3566 0.111088 4.18365 2650 
1135 1 -0.0326926 -0.0492215 -0.0602796 0.000423 -6.65313 -0.013542 3.5812 2650 
3601 1 -0.0363839 -0.0450225 -0.0584875 0.000116 -6.18028 0.0295215 3.79634 2650 
534 1 -0.0435389 -0.0457248 -0.0533794 0.000116 -8.721 -0.38959 7.11387 2650 
2132 1 -0.0472994 -0.0463963 -0.0496564 0.000423 -6.13882 -0.26029 5.83444 2650 
618 1 -0.0597717 -0.0458553 -0.034235 0.000116 -3.83945 0.29098 6.67358 2650 
947 1 -0.0607183 -0.0589516 -0.0325299 0.000116 -3.40462 0.146408 6.37352 2650 
1856 1 -0.0611892 -0.0548236 -0.0316268 0.000116 -2.58015 -0.135002 4.96054 2650 
2314 1 -0.0657968 -0.0457403 -0.0184958 0.000656 -2.419 -0.0837436 8.58938 2650 
3946 1 -0.0679869 -0.0492868 -0.0115161 4.2e-05 -1.22026 0.166778 6.95 2650 
1550 1 -0.0682831 -0.0497874 0.00294091 0.000656 0.38026 0.211096 8.75209 2650 
3812 1 -0.0686126 -0.0508303 0.00610344 0.000116 1.29567 -0.166052 14.5797 2650 
2835 1 -0.0671375 -0.0621077 0.0154146 0.000116 1.60465 -0.195583 7.0091 2650 
3840 1 -0.0657837 -0.045746 0.0185418 0.000656 2.35403 -0.0303139 8.39833 2650 
3891 1 -0.0654163 -0.0459115 0.0205838 0.000423 1.83663 -1.14698 5.84801 2650 
3391 1 -0.047718 -0.0524908 0.0497798 4.2e-05 4.50479 -0.305159 4.30294 2650 
1320 1 -0.0460893 -0.0491636 0.0512925 4.2e-05 5.37509 0.163344 4.82737 2650 
1558 1 -0.0351857 -0.0450562 0.0588622 0.000423 7.59173 -0.672295 4.53717 2650 
669 1 -0.0223876 -0.0619833 0.0645763 0.000656 8.05665 -0.0433775 2.78484 2650 
1256 1 -0.00572523 -0.0455634 0.068332 0.000423 8.89395 0.0816508 0.731088 2650 
3242 1 -0.00333865 -0.0306306 -0.0688036 0.000116 -7.63585 -0.186804 0.36848 2650 
2711 1 -0.0024902 -0.00820809 -0.0688335 0.000116 -5.60382 -0.322191 0.258376 2650 
762 1 -0.00597052 -0.00625596 -0.0686991 4.2e-05 -5.54514 -0.434901 0.480007 2650 
4235 1 -0.00135819 -0.00433475 -0.0688703 0.000116 -4.9244 0.143807 0.0359967 2650 
3779 1 -0.00630461 -0.0422264 -0.0682877 0.000423 -9.425 0.384045 0.869494 2650 
897 1 -0.00702622 -0.0392217 -0.0682168 0.000423 -8.7254 0.111091 0.899107 2650 
29 1 -0.00853996 -0.0366937 -0.0680443 0.000423 -6.42108 -0.256983 0.789139 2650 
2905 1 -0.004083 -0.0272399 -0.0684569 0.000423 -7.50166 0.248965 0.441946 2650 
3974 1 -0.00176114 -0.0230858 -0.0685551 0.000423 -7.49933 0.18967 0.187657 2650 
427 1 -0.00795032 -0.0223717 -0.0684231 0.000116 -7.46287 0.306326 0.861272 2650 
2186 1 -0.00994869 -0.0189333 -0.0681614 0.000116 -5.58696 -0.547234 0.812301 2650 
4217 1 -0.00823844 -0.0183929 -0.0680805 0.000423 -4.91952 -1.87564 0.593975 2650 
2480 1 -0.00897135 -0.0113371 -0.0682981 0.000116 -6.36332 0.00752898 0.822812 2650 
4028 1 -0.0101048 -0.00976019 -0.0681397 0.000116 -7.41758 0.196943 1.09687 2650 
429 1 -0.00897123 -0.00635467 -0.0682979 0.000116 -6.92526 0.3837 0.914235 2650 
1054 1 -0.0108021 -0.00394996 -0.0680317 0.000116 -5.63894 0.182286 0.900127 2650 
1177 1 -0.0107351 -0.00292116 -0.0680421 0.000116 -5.64862 0.0269672 0.912944 2650 
505 1 -0.0104003 -0.00245632 -0.068094 0.000116 -5.22025 -0.0954241 0.797631 2650 
2741 1 -0.0119151 -0.00194545 -0.0679204 4.2e-05 -5.35037 0.306347 0.944353 2650 
1164 1 -0.0110152 -0.000444625 -0.0679973 0.000116 -5.2861 -0.0920561 0.849465 2650 
3331 1 -0.0138419 -0.0424938 -0.0671661 0.000423 -6.87173 0.03897 1.41115 2650 
35 1 -0.0119108 -0.0423843 -0.0675356 0.000423 -9.42045 -0.154959 1.66234 2650 
3252 1 -0.0136883 -0.0312802 -0.0675016 0.000116 -7.09246 -0.200626 1.45395 2650 
269 1 -0.0137527 -0.026036 -0.0671789 0.000423 -6.68916 0.159023 1.35242 2650 
4087 1 -0.0128895 -0.0247091 -0.0673538 0.000423 -7.32734 -0.0545202 1.40008 2650 
3708 1 -0.0136663 -0.0230167 -0.0675133 0.000116 -6.91536 0.495401 1.37954 2650 
2664 1 -0.0132038 -0.0236257 -0.0672946 0.000423 -6.96918 0.501573 1.34239 2650 
711 1 -0.0125132 -0.0215748 -0.0674271 0.000423 -6.5258 0.213573 1.20706 2650 
410 1 -0.0122218 -0.0212495 -0.0677912 0.000116 -6.7508 0.698959 1.21672 2650 
1094 1 -0.0129405 -0.0187914 -0.0677328 4.2e-05 -6.47315 -0.0888273 1.24477 2650 
802 1 -0.0125585 -0.0164116 -0.0674182 0.000423 -6.58886 0.206252 1.24555 2650 
2429 1 -0.00964622 -0.0143732 -0.0676624 0.000656 -6.3311 0.0211138 0.880982 2650 
2196 1 -0.0150853 -0.0107753 -0.0672874 4.2e-05 -3.26331 -0.195461 0.722858 2650 
4019 1 -0.012279 -0.00878697 -0.0677812 0.000116 -5.74514 0.119386 1.03974 2650 
789 1 -0.0139842 -0.00694482 -0.0671371 0.000423 -6.01514 -0.172982 1.26948 2650 
367 1 -0.0148716 -0.0258735 -0.0669457 0.000423 -6.86177 -0.017342 1.55132 2650 
3747 1 -0.015641 -0.0194125 -0.0667709 0.000423 -6.79441 0.275662 1.58962 2650 
2060 1 -0.0178841 -0.00956602 -0.0665218 0.000116 -6.186 -0.0465276 1.68839 2650 
631 1 -0.0179191 -0.00510911 -0.0665124 0.000116 -5.04229 -0.260554 1.34792 2650 
2736 1 -0.0193093 -0.0282144 -0.0661213 0.000116 -5.56333 -0.785286 1.63684 2650 
1918 1 -0.0190085 -0.0206197 -0.0659055 0.000423 -6.67549 0.152237 1.65317 2650 
2822 1 -0.0205276 -0.0161318 -0.0657539 0.000116 -5.91452 -0.282178 1.84248 2650 
417 1 -0.0204987 -0.000838384 -0.0657633 0.000116 -4.4051 -0.123202 1.38624 2650 
2361 1 -0.0210724 -0.0316023 -0.0652602 0.000423 -6.66427 -0.288699 2.14994 2650 
2710 1 -0.0227196 -0.0170956 -0.0650292 0.000116 -5.92832 -0.311362 2.06812 2650 
1818 1 -0.0235123 -0.0131462 -0.0647473 0.000116 -6.2689 -0.123771 2.27436 2650 
2457 1 -0.0231292 -0.0296709 -0.0645603 0.000423 -6.672 -0.155631 2.3806 2650 
1634 1 -0.0250529 -0.0242733 -0.0641665 0.000116 -7.15635 0.110075 2.79328 2650 
3817 1 -0.0250459 -0.0167931 -0.0641694 0.000116 -5.91057 -0.0903203 2.29787 2650 
1068 1 -0.0237794 -0.0173247 -0.0646494 0.000116 -6.20867 -0.331889 2.27676 2650 
3707 1 -0.0241486 -0.0159564 -0.0645124 0.000116 -5.8132 0.0405877 2.1974 2650 
293 1 -0.0253461 -0.0113387 -0.0640519 0.000116 -6.2574 0.158235 2.46425 2650 
3482 1 -0.0255246 -0.00477998 -0.0639805 0.000116 -4.07947 -0.390019 1.61358 2650 
2685 1 -0.0262888 -0.0271183 -0.0633399 0.000423 -6.96004 -0.0614635 2.87669 2650 
1008 1 -0.0264218 -0.0170066 -0.0632833 0.000423 -5.94904 -0.102059 2.4721 2650 
2487 1 -0.0274929 -0.0118771 -0.0631604 0.000116 -7.04289 -0.291739 3.06082 2650 
1364 1 -0.0260275 -0.0078658 -0.0634473 0.000423 -6.10739 -0.303514 2.49395 2650 
3037 1 -0.0287352 -0.0220216 -0.062604 0.000116 -7.16267 -0.183059 3.29051 2650 
1461 1 -0.0282033 -0.0217291 -0.0625099 0.000423 -7.26986 -0.0459998 3.26305 2650 
1296 1 -0.0284838 -0.0208811 -0.0627189 0.000116 -6.09381 -0.765048 2.7689 2650 
3479 1 -0.0281646 -0.0161393 -0.0628632 0.000116 -6.1668 -0.539985 2.76434 2650 
3572 1 -0.0283988 -0.0159558 -0.0627576 0.000116 -6.18742 -0.24461 2.80218 2650 
2234 1 -0.0271972 -0.011183 -0.0629557 0.000423 -6.67414 0.0222107 2.87184 2650 
1076 1 -0.0275884 -0.00869066 -0.0631187 0.000116 -5.74337 -0.116498 2.50718 2650 
3348 1 -0.0292854 -0.00762569 -0.0623491 0.000116 -6.08533 0.0739916 2.86271 2650 
4058 1 -0.0263141 -0.00640412 -0.0630776 0.000656 -4.13252 -0.0230461 1.7542 2650 
1172 1 -0.0277233 -0.0057667 -0.0630592 0.000116 -4.28813 -0.134266 1.89044 2650 
400 1 -0.030569 -0.0288521 -0.0617286 0.000116 -7.697 -0.249287 3.80383 2650 
786 1 -0.0295159 -0.0249468 -0.0619013 0.000423 -6.88111 -0.0949915 3.28 2650 
2398 1 -0.0294289 -0.0167163 -0.0622811 0.000116 -5.89305 -0.278467 2.77773 2650 
2538 1 -0.028122 -0.0150971 -0.0622936 0.000656 -6.00672 -0.115146 2.6941 2650 
1792 1 -0.0296087 -0.0123414 -0.0618565 0.000423 -5.74505 -0.20043 2.73393 2650 
3834 1 -0.0299333 -0.0108847 -0.0621227 4.2e-05 -4.25702 -0.64846 2.06647 2650 
3926 1 -0.029869 -0.00685288 -0.0620717 0.000116 -5.98213 0.14086 2.8789 2650 
2714 1 -0.0296998 -0.00399057 -0.0621522 0.000116 -4.7449 0.147513 2.2607 2650 
1169 1 -0.0307748 -0.00332691 -0.0616272 0.000116 -4.05429 1.12489 2.01122 2650 
4106 1 -0.0308853 -0.0365056 -0.0612293 0.000423 -6.49577 -0.287088 3.30757 2650 
935 1 -0.0314445 -0.02245 -0.0609438 0.000423 -7.04495 -0.137426 3.63885 2650 
3039 1 -0.0323589 -0.0187864 -0.0608102 0.000116 -7.04985 0.0676557 3.7632 2650 
387 1 -0.033568 -0.0270787 -0.0601449 0.000116 -6.38653 -0.530255 3.55695 2650 
811 1 -0.0320448 -0.0198011 -0.0606309 0.000423 -7.1214 -0.0983328 3.76158 2650 
1587 1 -0.033193 -0.0166357 -0.06001 0.000423 -7.23445 0.212237 3.99849 2650 
2183 1 -0.0336408 -0.015566 -0.0601106 0.000116 -7.20987 0.50305 4.03471 2650 
1383 1 -0.0342524 -0.0254923 -0.0597602 0.000116 -6.6735 -0.713441 3.81881 2650 
2098 1 -0.0333801 -0.0257294 -0.0596404 0.000656 -6.92722 -0.155287 3.92137 2650 
2898 1 -0.0335611 -0.0244696 -0.0598031 0.000423 -6.57207 0.175635 3.68087 2650 
2143 1 -0.0334778 -0.0115383 -0.0598519 0.000423 -5.68776 -0.159974 3.17842 2650 
3764 1 -0.0343488 -0.00973824 -0.0593534 0.000423 -4.3914 0.17462 2.5011 2650 
1333 1 -0.0336181 -0.00658845 -0.0597659 0.000423 -3.68842 -0.168987 2.07021 2650 
2349 1 -0.0350133 -0.0166576 -0.0589653 0.000423 -6.3374 -0.0690724 3.74009 2650 
1628 1 -0.0354342 -0.0071187 -0.0590583 0.000116 -5.17476 1.44659 3.08728 2650 
659 1 -0.038781 -0.0332554 -0.0569808 4.2e-05 -6.20166 -0.050244 4.27622 2650 
1712 1 -0.0388956 -0.0265629 -0.0568232 0.000116 -5.38086 0.0543289 3.74736 2650 
3269 1 -0.03793 -0.0105154 -0.0574849 0.000116 -2.80143 -0.224632 1.89323 2650 
4036 1 -0.0398973 -0.0321332 -0.0561439 0.000116 -6.33399 -0.0345115 4.57126 2650 
4101 1 -0.0393517 -0.0321003 -0.056146 0.000423 -6.33213 -0.14062 4.48396 2650 
2053 1 -0.0399373 -0.0313127 -0.0561166 0.000116 -6.28634 0.110189 4.5489 2650 
1393 1 -0.0396412 -0.0310351 -0.0563186 0.000116 -4.74289 -0.510839 3.42743 2650 
3878 1 -0.0390291 -0.0253318 -0.0563769 0.000423 -6.31225 0.0397898 4.39475 2650 
392 1 -0.039525 -0.0250255 -0.0564102 0.000116 -6.31366 0.114233 4.48188 2650 
3356 1 -0.0397509 -0.0237737 -0.0562526 0.000116 -6.64142 0.452052 4.70377 2650 
2702 1 -0.0405352 -0.0299295 -0.0556931 0.000116 -4.9629 -0.368816 3.6098 2650 
1468 1 -0.0402707 -0.0153477 -0.0555072 0.000423 -5.12194 -0.568804 3.70245 2650 
3174 1 -0.0405455 -0.0136209 -0.055777 4.2e-05 -5.97757 0.314788 4.34075 2650 
542 1 -0.0421401 -0.00248734 -0.054584 4.2e-05 -4.90942 -0.251163 3.81332 2650 
186 1 -0.0418617 -0.0025939 -0.0547045 0.000116 -4.09392 -0.127114 3.12521 2650 
4249 1 -0.0412407 -0.00011602 -0.0551744 0.000116 -5.00112 -0.00136283 3.75473 2650 
3227 1 -0.0420339 -0.0262108 -0.0541854 0.000423 -6.05932 0.0102234 4.70974 2650 
2000 1 -0.0425623 -0.0230149 -0.053772 0.000423 -6.00101 0.151884 4.77263 2650 
4124 1 -0.0430468 -0.00883986 -0.0537769 0.000116 -5.56554 0.569288 4.46233 2650 
1752 1 -0.0424881 -0.00232241 -0.0543135 4.2e-05 -5.29595 -0.227482 4.17255 2650 
2527 1 -0.0426465 -4.22023e-05 -0.054189 4.2e-05 -4.60285 0.00461268 3.61262 2650 
378 1 -0.0429101 -0.0218856 -0.053495 0.000423 -5.99882 0.110878 4.8125 2650 
822 1 -0.0435647 -0.0177291 -0.0529631 0.000423 -5.26054 -0.149724 4.32843 2650 
3261 1 -0.0433223 -0.0162587 -0.0535555 0.000116 -5.27521 0.400373 4.28464 2650 
2848 1 -0.0448505 -0.0254756 -0.0523796 4.2e-05 -5.8378 0.0196833 4.99492 2650 
2166 1 -0.0448265 -0.0156923 -0.0523028 0.000116 -5.11944 -0.0846548 4.37626 2650 
2938 1 -0.0443753 -0.0095464 -0.0526867 0.000116 -5.02156 -0.158479 4.22823 2650 
636 1 -0.0455568 -0.0238966 -0.0516681 0.000116 -5.88883 0.0655963 5.19509 2650 
2012 1 -0.0451124 -0.0152836 -0.0516513 0.000423 -5.13414 -0.106743 4.46877 2650 
4100 1 -0.0447792 -0.012838 -0.0519395 0.000423 -4.99633 0.10059 4.29874 2650 
1047 1 -0.0466745 -0.0181257 -0.0506602 0.000116 -6.19193 -0.0646233 5.7153 2650 
3282 1 -0.0462383 -0.0175872 -0.0511582 4.2e-05 -4.34671 -0.35012 3.94232 2650 
1061 1 -0.0473232 -0.0145864 -0.0500554 0.000116 -4.94194 0.161833 4.66673 2650 
1520 1 -0.0479245 -0.0390312 -0.0494798 0.000116 -5.61164 -0.0285579 5.44636 2650 
2998 1 -0.0476592 -0.0246932 -0.0493106 0.000423 -5.47654 -0.0489049 5.29147 2650 
578 1 -0.0488817 -0.0310964 -0.0480998 0.000423 -5.44449 -0.0586559 5.53262 2650 
3418 1 -0.0490263 -0.0209699 -0.0479518 0.000423 -5.46029 -0.117913 5.58893 2650 
3066 1 -0.0509725 -0.0293909 -0.0464439 4.2e-05 -4.796 -0.147405 5.27799 2650 
3692 1 -0.0510247 -0.01424 -0.0462745 0.000116 -4.65893 -0.0361312 5.13111 2650 
1794 1 -0.0512873 -0.0339926 -0.045525 0.000423 -5.25669 -0.185907 5.92911 2650 
1050 1 -0.0517911 -0.0216283 -0.0453004 0.000116 -5.24967 -0.380068 5.30801 2650 
3233 1 -0.00137615 -0.00640455 -0.0454548 0.000423 -0.209441 -0.303593 -7.01493 2650 
2821 1 -0.0526988 -0.00183647 -0.0443594 0.000116 -4.21414 0.0263206 5.03254 2650 
689 1 -0.0529175 -0.0398605 -0.0436202 0.000423 -5.14272 -0.0419625 6.26714 2650 
312 1 -0.053687 -0.0322236 -0.0431473 0.000116 -4.47247 -0.513104 5.53418 2650 
856 1 -0.0541079 -0.0266707 -0.0426203 0.000116 -5.19816 -0.360895 6.62822 2650 
476 1 -0.054345 -0.0272825 -0.041826 0.000423 -4.36608 -0.0263452 5.72206 2650 
1363 1 -0.0543826 -0.0246587 -0.0417682 0.000423 -4.67581 -0.0394964 6.09868 2650 
2014 1 -0.0542423 -0.0171331 -0.0419543 0.000423 -4.43048 -0.122001 5.70518 2650 
336 1 -0.0559352 -0.0383209 -0.0392609 0.000656 -4.71507 -0.00833321 6.72704 2650 
1964 1 -0.0566262 -0.0232681 -0.0392165 0.000116 -4.29022 0.675138 6.22258 2650 
3024 1 -0.0565748 -0.0194311 -0.03929 0.000116 -4.08832 -0.564544 5.88524 2650 
3041 1 -0.057437 -0.0316759 -0.0380263 0.000116 -4.29204 -0.126972 6.46949 2650 
1563 1 -0.0570267 -0.0312538 -0.0380896 0.000423 -4.33764 0.0258549 6.51786 2650 
4210 1 -0.057612 -0.03283 -0.0371991 0.000423 -4.23782 0.0137387 6.55023 2650 
1231 1 -0.0573809 -0.0264876 -0.0375552 0.000423 -4.08451 0.00243564 6.251 2650 
1555 1 -0.0580901 -0.0392513 -0.0364487 0.000423 -4.20711 -0.0358937 6.70151 2650 
2232 1 -0.0579023 -0.0340794 -0.036746 0.000423 -4.18353 0.00805318 6.5592 2650 
632 1 -0.0583501 -0.0291367 -0.0366093 0.000116 -3.85104 -0.24138 6.13035 2650 
2451 1 -0.0586584 -0.0334627 -0.0355273 0.000423 -3.80998 0.26017 6.33245 2650 
1721 1 -0.0589458 -0.0323587 -0.0356427 0.000116 -3.78849 0.373802 6.27612 2650 
2343 1 -0.0583517 -0.0257885 -0.0360293 0.000423 -4.1011 -0.0526396 6.6703 2650 
1136 1 -0.0582357 -0.024675 -0.0362156 0.000423 -4.10573 0.00211015 6.59707 2650 
14 1 -0.0586152 -0.0241609 -0.0355975 0.000423 -4.07881 -0.0738183 6.69696 2650 
549 1 -0.0588999 -0.00795309 -0.0358606 4.2e-05 -3.24932 0.485191 5.32728 2650 
4021 1 -0.0591141 -0.0245773 -0.0353625 0.000116 -3.91367 0.230516 6.55169 2650 
3642 1 -0.0587298 -0.0249807 -0.0354093 0.000423 -4.0291 0.0124499 6.68969 2650 
2382 1 -0.0591163 -0.0165728 -0.035359 0.000116 -2.55062 -0.302704 4.29876 2650 
27 1 -0.0593681 -0.0316149 -0.0343286 0.000423 -3.73222 0.0208222 6.48112 2650 
1916 1 -0.0596698 -0.0229045 -0.0338002 0.000423 -3.76654 -0.110939 6.72369 2650 
710 1 -0.05971 -0.015736 -0.0337291 0.000423 -3.57252 -0.212777 6.33747 2650 
1030 1 -0.0603852 -0.0392626 -0.0325047 0.000423 -3.4769 -0.16767 6.45229 2650 
2803 1 -0.060705 -0.0373745 -0.0325561 0.000116 -3.18541 -0.0855551 5.93899 2650 
3729 1 -0.0601987 -0.029229 -0.0323654 0.000656 -3.78887 -0.0407095 7.02997 2650 
3531 1 -0.0605101 -0.027133 -0.0322734 0.000423 -3.7258 0.0806453 6.98039 2650 
3543 1 -0.0604039 -0.022004 -0.03247 0.000423 -3.55747 -0.0744001 6.60734 2650 
2530 1 -0.0600827 -0.0206744 -0.0325777 0.000656 -3.64505 0.00683926 6.68855 2650 
4254 1 -0.0604953 -0.0112326 -0.0329446 0.000116 -3.48775 0.385217 6.41293 2650 
1046 1 -0.0606348 -0.000116064 -0.0326866 0.000116 -3.06433 -0.000578181 5.70428 2650 
1596 1 -0.0607449 -0.000116014 -0.0324816 0.000116 -3.05992 0.00120989 5.70445 2650 
3360 1 -0.0609578 -0.0419714 -0.0320803 0.000116 -3.40699 0.442215 6.47952 2650 
3583 1 -0.0611212 -0.0368998 -0.0317682 0.000116 -4.70073 0.531233 9.03713 2650 
3882 1 -0.0608813 -0.00943818 -0.0315661 0.000423 -1.45943 -0.296762 2.87769 2650 
1193 1 -0.0609643 -0.00454359 -0.032068 0.000116 -1.50551 -0.0738728 2.87709 2650 
1056 1 -0.0619596 -0.0366894 -0.0300995 0.000116 -3.24667 -0.00612876 6.67547 2650 
868 1 -0.0617622 -0.0184845 -0.0305027 0.000116 -3.05899 -0.917992 6.18654 2650 
1224 1 -0.0613716 -0.0175225 -0.0306014 0.000423 -3.15124 -0.221326 6.32637 2650 
2576 1 -0.0619332 -0.0302251 -0.0294502 0.000423 -3.17194 -0.05759 6.69564 2650 
479 1 -0.0619335 -0.0203798 -0.0294501 0.000423 -3.34711 -0.283707 7.02967 2650 
3640 1 -0.0618254 -0.0188626 -0.0296747 0.000423 -3.21415 0.125112 6.68007 2650 
1314 1 -0.0622116 -0.0123203 -0.0297491 4.2e-05 -3.61747 -1.21121 7.58244 2650 
3464 1 -0.0626628 -0.0224671 -0.0286069 0.000116 -3.04101 0.461055 6.65787 2650 
440 1 -0.0625221 -0.00591782 -0.0290902 4.2e-05 -1.42168 -0.109693 3.00978 2650 
2116 1 -0.0624587 -0.0359475 -0.0283173 0.000423 -2.62362 0.372074 5.79864 2650 
2663 1 -0.0628451 -0.0326966 -0.027451 0.000423 -3.18747 0.329063 7.27338 2650 
3372 1 -0.0631798 -0.0280857 -0.0274484 0.000116 -3.11804 -0.0854126 7.16956 2650 
2337 1 -0.0628509 -0.0258967 -0.0274358 0.000423 -2.78324 0.203131 6.37674 2650 
4251 1 -0.0633329 -0.0231028 -0.0270914 0.000116 -3.03755 -0.0210488 7.13917 2650 
3734 1 -0.0626983 -0.0225076 -0.0272068 0.000656 -3.03753 0.0358331 6.99402 2650 
1016 1 -0.0634565 -0.0310688 -0.0260069 0.000423 -2.91029 -0.0920985 7.08867 2650 
3477 1 -0.0637244 -0.00724614 -0.0261593 0.000116 -1.22848 -0.146762 2.89985 2650 
2462 1 -0.0635464 -0.0244811 -0.0257839 0.000423 -2.8055 0.164247 6.91795 2650 
2112 1 -0.0635956 -0.0235957 -0.0256621 0.000423 -2.88504 0.204011 7.19111 2650 
555 1 -0.0638412 -0.0418206 -0.024401 0.000656 -3.00508 -0.194726 7.81826 2650 
169 1 -0.0642279 -0.00896163 -0.0248932 0.000116 -2.33255 -0.531674 6.02113 2650 
3850 1 -0.064371 -0.0408096 -0.0236487 0.000423 -2.85556 -0.139081 7.76684 2650 
4309 1 -0.0642806 -0.0283381 -0.0238967 0.000423 -2.60538 0.0926241 6.97822 2650 
3978 1 -0.0643705 -0.022583 -0.0236502 0.000423 -2.67196 0.101606 7.25803 2650 
2430 1 -0.0643449 -0.0332804 -0.0230419 0.000656 -2.60792 0.0280903 7.40345 2650 
1915 1 -0.0644311 -0.0290636 -0.0234886 0.000423 -2.59244 0.127193 7.04356 2650 
4212 1 -0.0646649 -0.0230661 -0.022834 0.000423 -2.57635 -0.0533025 7.29575 2650 
3443 1 -0.0644223 -0.0215123 -0.0235089 0.000423 -2.63793 0.153514 7.1824 2650 
992 1 -0.0646522 -0.0351476 -0.0221685 0.000656 -2.62838 -0.0716983 7.62767 2650 
1372 1 -0.0647746 -0.0308114 -0.0225221 0.000423 -2.47892 -0.0127396 7.18327 2650 
1838 1 -0.0651391 -0.0210836 -0.0224025 0.000116 -2.47537 0.177967 7.19942 2650 
4011 1 -0.0651828 -0.0204543 -0.0222764 0.000116 -2.49411 0.341137 7.28679 2650 
4062 1 -0.0646656 -0.0172858 -0.0221205 0.000656 -1.95544 -0.0895162 5.83619 2650 
3656 1 -0.0651248 -0.0317096 -0.0214895 0.000423 -2.27889 0.0312374 6.9355 2650 
3084 1 -0.0649512 -0.0247146 -0.0212714 0.000656 -2.5179 0.0855126 7.66633 2650 
1341 1 -0.0650475 -0.0141244 -0.0217069 0.000423 -1.93749 0.0347396 5.94535 2650 
1825 1 -0.0655022 -0.000350029 -0.0213175 0.000116 -2.08523 -0.0806966 6.39656 2650 
4082 1 -0.0652526 -0.0192394 -0.0210958 0.000423 -2.25679 -0.241644 6.98814 2650 
3815 1 -0.0657155 -0.0175936 -0.0206412 0.000116 -2.20813 0.122926 7.03919 2650 
1095 1 -0.0657002 -0.00963062 -0.0209198 4.2e-05 -1.86957 -0.10856 5.92168 2650 
1813 1 -0.0659213 -0.0225721 -0.0189034 0.000423 -2.07654 -0.390048 7.20485 2650 
3351 1 -0.066292 -0.0336548 -0.0187186 0.000116 -1.84374 -0.491452 6.47996 2650 
2427 1 -0.065904 -0.0299129 -0.0181084 0.000656 -1.96183 0.0487545 7.07332 2650 
1020 1 -0.0660205 -0.0244763 -0.0185549 0.000423 -2.10134 -0.0519205 7.48908 2650 
228 1 -0.0660495 -0.0263272 -0.0175697 0.000656 -2.08473 -0.00563452 7.87009 2650 
1060 1 -0.0668623 -0.0245536 -0.0165607 0.000116 -2.00138 0.350674 8.08297 2650 
3376 1 -0.0684311 -0.0204944 -0.0164862 0.000116 -5.23821 0.161415 10.2874 2650 
606 1 -0.000183 0.00107969 -0.016592 0.000116 0 -0.011753 0 2650 
2726 1 -0.000635087 0.0092384 -0.0166632 0.000116 -0.00741369 0.00988612 -0.041436 2650 
2593 1 -0.0670197 -0.0128681 -0.0159163 0.000116 -0.929717 -0.094723 3.92113 2650 
999 1 -8.902e-05 0.00026604 -0.0158475 0.000656 -0.00841998 -0.0161411 -0.0218233 2650 
2013 1 -0.00302762 0.00313977 -0.0158393 0.000423 -0.00154235 0.00221798 0.00156406 2650 
2301 1 -0.00435996 0.00326886 -0.0159729 4.2e-05 -0.00116259 -0.0070103 0.00459775 2650 
4227 1 -0.000289136 0.00330315 -0.0164527 0.000116 0.00593372 -0.017543 0.0130313 2650 
2283 1 -0.00353162 0.00466708 -0.0163653 0.000116 -0.00010552 0.00956354 0.000789399 2650 
2520 1 -0.000150001 0.00490474 -0.0164839 4.2e-05 0.00318265 0.000380138 0.00682554 2650 
978 1 -0.00186289 0.00619848 -0.0164522 0.000116 0.0180122 -0.00353228 -0.00159853 2650 
3934 1 -0.001977 0.00584169 -0.016218 0.000116 0 -0.011753 0 2650 
3365 1 -0.00148149 0.00636449 -0.0162532 0.000116 0.015804 0.0241832 0.0212134 2650 
3150 1 -0.00241742 0.0100027 -0.0161994 0.000116 -0.0182263 -0.0087302 -0.0269448 2650 
938 1 -0.00154316 0.00993826 -0.0161068 0.000116 -0.00119823 0.000558801 -0.00633771 2650 
302 1 -0.00216579 0.0105164 -0.0165428 0.000116 -0.0347922 0.0241041 0.0152166 2650 
1483 1 -0.000496258 0.0106159 -0.0164129 0.000423 -0.000431738 0.0094693 0.00416488 2650 
3007 1 -0.00302571 0.0116484 -0.0160428 0.000423 -0.00754521 0.0118776 -0.00214285 2650 
3051 1 -0.00122483 0.0122459 -0.0162995 0.000116 0.163555 -0.227841 -0.0207843 2650 
371 1 -0.000626961 0.0120617 -0.016314 0.000423 -0.00963196 0.00951459 -0.00479058 2650 
188 1 -0.00333086 0.0137997 -0.0160812 0.000116 -0.0148612 0.0228045 0.00418427 2650 
2182 1 -0.00148033 0.0143986 -0.0159606 0.000116 0.00266263 0.0360122 0.0211071 2650 
2713 1 -0.000698787 0.0163061 -0.0158415 0.000116 0.00037122 0.035974 0.00535071 2650 
1717 1 -0.00412102 0.0316579 -0.0163232 0.000116 0.0090039 0.0753863 0.0163861 2650 
2264 1 -0.00102463 0.0526724 -0.0162368 0.000116 -0.0637592 0.11185 0.0253368 2650 
2818 1 -0.0672248 -0.0289738 -0.0149232 0.000116 -1.67924 0.0228628 7.4275 2650 
1325 1 -0.0665243 -0.0270902 -0.0156527 0.000656 -1.77525 0.0159607 7.3312 2650 
4260 1 -0.0670818 -0.0156031 -0.0156539 0.000116 -1.55503 0.611861 6.6068 2650 
30 1 -0.00242156 -0.00258329 -0.0153473 0.000423 -0.0139928 -0.0214008 0.00726417 2650 
3011 1 -0.00024258 -0.00288888 -0.015276 0.000423 0.0180353 -0.0317081 -0.0392676 2650 
2399 1 -0.002418 0.00129369 -0.015541 0.000116 0 -0.011753 0 2650 
3637 1 -0.00551068 0.00439604 -0.0152352 0.000423 -0.00704251 0.0124689 0.006236 2650 
1679 1 -0.00434745 0.00520959 -0.0157229 0.000423 -0.00453172 0.0157125 0.00260684 2650 
889 1 -0.00100802 0.00479483 -0.0156491 0.000656 0.0221019 0.0158351 0.0220207 2650 
3830 1 -0.006879 0.00739369 -0.015411 4.2e-05 0 -0.011753 0 2650 
2438 1 -0.00628727 0.00724306 -0.0151673 0.000423 -0.00468347 -0.000292455 -0.00123863 2650 
70 1 -0.00192322 0.0136394 -0.0154823 0.000116 0.0560864 0.0328811 0.00597028 2650 
2793 1 -0.000873838 0.0135334 -0.0151871 0.000423 0.00400332 0.0260717 0.000754087 2650 
3838 1 -0.00507249 0.0145257 -0.0154067 0.000656 0.0157867 0.0260395 0.00729433 2650 
2466 1 -0.00218757 0.0231119 -0.0153801 0.000423 0.0618857 0.0331724 -0.00268308 2650 
1195 1 -0.00245596 0.0358879 -0.0151061 0.000116 0.0557766 0.0782116 -0.0138054 2650 
2800 1 -0.0670818 -0.0230784 -0.0142424 0.000423 -1.62276 -0.0130496 7.58633 2650 
1053 1 -0.007469 -0.00254831 -0.014946 0.000116 0 -0.011753 0 2650 
854 1 -0.0672681 -0.000355401 -0.0148323 0.000116 -1.56769 0.375478 7.06917 2650 
857 1 -0.0080919 0.00360149 -0.0146541 0.000116 -0.0319262 0.0179271 0.0379105 2650 
3787 1 -0.00687206 0.00394641 -0.0147709 0.000116 -0.0024271 -0.00223267 -0.0195234 2650 
1611 1 -0.00101589 0.0039753 -0.0149158 0.000116 0.0444256 -0.019621 0.0278665 2650 
1192 1 -0.00717391 0.00658003 -0.0146698 0.000116 0.00510585 0.0133553 0.012363 2650 
1827 1 -0.00245992 0.00726458 -0.0145547 0.000116 0.0445821 -0.0304485 -0.00868089 2650 
581 1 -0.00559462 0.00811457 -0.0144369 0.000423 0.000441693 0.00100922 0.00165067 2650 
3364 1 -0.00680286 0.00870777 -0.0149772 0.000116 -0.00179506 0.0163753 -0.0232219 2650 
233 1 -0.0033417 0.00883255 -0.014572 0.000423 0.00841442 -0.00267664 0.00454736 2650 
2851 1 -0.00873715 0.0106508 -0.014402 4.2e-05 -0.209059 -0.12398 0.156693 2650 
86 1 -0.00524116 0.0110476 -0.0149256 0.000116 -0.0196067 0.0126222 0.000798653 2650 
2781 1 -0.00563803 0.0114158 -0.0147243 0.000423 0.00977627 0.0105103 0.0120467 2650 
2969 1 -0.00272258 0.0111212 -0.0148105 0.000656 -0.00667616 0.014076 0.00443217 2650 
2453 1 -0.0059364 0.0125311 -0.0142391 0.000423 0.00287214 0.0261989 -0.0126472 2650 
1228 1 -0.00275864 0.0141405 -0.0146641 0.000423 -0.0165339 0.0339414 0.00465399 2650 
2191 1 -0.00239305 0.013493 -0.0144942 4.2e-05 -0.00764734 0.00298638 -0.00836536 2650 
3644 1 -0.00139937 0.0147258 -0.0145885 0.000423 -0.0118967 0.0391079 0.0034562 2650 
93 1 -0.00778288 0.021519 -0.0148719 0.000116 -0.0930021 0.08494 0.0463235 2650 
3165 1 -0.00656544 0.0221908 -0.0144225 0.000116 -0.042342 0.12169 0.0695027 2650 
2585 1 -0.00209367 0.0284157 -0.0149016 0.000116 -0.0221426 0.0759057 0.0070692 2650 
2670 1 -0.0671893 -0.0377416 -0.0136538 0.000423 -1.49139 -0.174212 7.36077 2650 
146 1 -0.067143 -0.0240107 -0.0139568 0.000423 -1.54748 -0.0112838 7.57073 2650 
4380 1 -0.0675688 -0.021171 -0.0137704 4.2e-05 -1.74013 1.02729 8.48837 2650 
2768 1 -0.0671924 -0.0145501 -0.0137166 0.000423 -1.28189 -0.0434029 6.40327 2650 
4244 1 -0.00381542 -0.00328923 -0.0140258 0.000116 -0.0436806 -0.00994679 0.0125723 2650 
736 1 -0.00896718 -0.00194752 -0.0140127 0.000116 -0.0307431 -0.0170391 0.0144389 2650 
509 1 -0.00789345 -0.000905728 -0.0140866 0.000116 -0.00480979 -0.0076817 0.0108723 2650 
1991 1 -0.00865318 0.000150264 -0.0137042 0.000656 -0.0192457 -0.00223252 0.00858771 2650 
2666 1 -0.00761974 0.0033099 -0.0141306 0.000423 0.0107963 0.0809594 0.0204513 2650 
763 1 -0.00720667 0.00326006 -0.0137729 4.2e-05 0.0429385 0.0136209 0.0378616 2650 
220 1 -0.00328337 0.00376322 -0.0136525 4.2e-05 0.00197382 0.00663681 0.00671825 2650 
1288 1 -0.002467 0.00502269 -0.014044 0.000116 0 -0.011753 0 2650 
3515 1 -0.0085812 0.00631165 -0.0135484 0.000656 -0.00454215 -0.00749919 0.00616721 2650 
1618 1 -0.00941941 0.00763817 -0.0138814 0.000116 0.0059414 0.00192455 -0.00369393 2650 
1769 1 -0.00866253 0.0078081 -0.0136018 0.000656 -0.00763615 -0.00751468 0.00847974 2650 
2483 1 -0.00560354 0.00737405 -0.013591 0.000116 0.00771374 -0.0189039 -0.0218467 2650 
4190 1 -0.0093456 0.00946617 -0.0135877 0.000423 -0.00626579 0.00565015 0.00416389 2650 
842 1 -0.00794777 0.00886062 -0.0140401 0.000116 -0.0132472 -0.000581938 -0.0143857 2650 
1409 1 -0.000533114 0.0087826 -0.013917 0.000116 -0.00338114 -0.0124825 -0.00177889 2650 
793 1 -7.83894e-05 0.0094398 -0.0139357 0.000423 -0.00384688 0.00642406 -0.0108379 2650 
289 1 -0.00382277 0.0104546 -0.0136735 0.000116 -0.0130397 0.0193908 0.0119694 2650 
1802 1 -0.00320019 0.0123902 -0.0141494 0.000423 0.00500259 -0.000364755 -0.0111755 2650 
2345 1 -0.00181809 0.0138371 -0.0140177 0.000423 -0.0175833 0.0131789 -0.0282092 2650 
128 1 -0.000902981 0.0142753 -0.0140584 0.000423 -0.00458662 0.0273274 -0.00640456 2650 
3145 1 -0.00898247 0.0151224 -0.0140233 0.000116 0.00413084 0.0258652 0.0123186 2650 
3471 1 -0.00737815 0.0151492 -0.0139714 0.000116 0.00654915 0.0415659 -0.0136084 2650 
1839 1 -0.00772877 0.0165394 -0.0134427 0.000116 -0.0676852 0.0211351 0.0188737 2650 
2924 1 -0.0096981 0.017148 -0.0137998 0.000116 -0.0447463 0.0323973 0.0311383 2650 
1776 1 -0.00619739 0.0267517 -0.0137445 0.000423 -0.019036 0.131664 0.086751 2650 
4234 1 -0.00474753 0.0345672 -0.0139019 0.000116 0.00512064 0.0508026 0.0366661 2650 
3211 1 -0.00669341 0.054898 -0.0140747 0.000423 0.121461 0.0923792 -0.0696515 2650 
4303 1 -0.0673123 -0.0301208 -0.0130376 0.000423 -1.30978 -0.328717 7.1178 2650 
1912 1 -0.0672561 -0.0291868 -0.0132974 0.000423 -1.37071 -0.333798 7.15414 2650 
2002 1 -0.0673154 -0.0242474 -0.0130607 0.000423 -1.48135 -0.0260884 7.59323 2650 
3646 1 -0.0673537 -0.0072029 -0.0127132 0.000423 -0.405539 -0.345013 3.09511 2650 
623 1 -0.00874266 -9.80482e-05 -0.0126934 0.000116 -0.00176155 0.0164163 -0.0155171 2650 
1763 1 -0.00383006 -0.000383661 -0.013372 0.000656 0.0110536 0.0386342 0.0470271 2650 
2609 1 -0.0085355 0.00131888 -0.0134028 0.000116 -0.00705034 0.0126459 0.00789545 2650 
2922 1 -0.00822332 0.00131113 -0.0132375 0.000116 -0.00925852 -0.000802711 0.00675368 2650 
2512 1 -0.00621781 0.000954461 -0.0132647 0.000116 0.018779 -0.0192413 0.00230208 2650 
3917 1 -0.003984 0.00155069 -0.012703 0.000116 0 -0.011753 0 2650 
3316 1 -0.0101417 0.00174568 -0.0130043 0.000423 -0.00552961 -0.00411585 -0.00161779 2650 
2059 1 -0.003583 0.00175969 -0.012756 0.000116 0 -0.011753 0 2650 
2913 1 -0.00962921 0.00302478 -0.0133726 0.000116 -0.0269546 0.0385212 -0.00427738 2650 
4374 1 -0.0095515 0.00306239 -0.0130254 4.2e-05 -0.00342399 0.0134868 -0.018776 2650 
2473 1 -0.00949992 0.00252968 -0.0131106 0.000423 -0.0437212 0.0367029 0.0424505 2650 
3289 1 -0.00501187 0.00354055 -0.0127749 4.2e-05 0.00210041 -0.0118729 -0.0396069 2650 
1427 1 -0.002948 0.00409069 -0.013376 4.2e-05 0 -0.011753 0 2650 
3362 1 -0.00259875 0.00463398 -0.0130434 0.000116 0.000350619 -0.00253681 -0.00404217 2650 
3071 1 -0.0102637 0.00510749 -0.0128046 4.2e-05 -0.0100464 -0.00669175 -0.0253889 2650 
2322 1 -0.00933742 0.00492344 -0.0131828 0.000656 -0.00463581 -0.0140818 0.00324309 2650 
4179 1 -0.00816622 0.00481226 -0.0128504 0.000423 -0.000889884 -0.0208242 0.00186897 2650 