ITEM: TIMESTEP
356334
ITEM: NUMBER OF ATOMS
4382
ITEM: BOX BOUNDS ff ff ff
-0.15 0.15
-0.15 0.06
-0.15 0.15
ITEM: ATOMS id type x y z radius vx vy vz density 
3810 1 -0.0353517 -0.0622586 -0.0575916 0.000116 -2.64932 2.19182 2.79214 2650 
1845 1 -0.0087135 -0.0360596 -0.0657248 0.000116 -2.37967 -2.33665 0.471346 2650 
843 1 -0.0102365 -0.00575674 -0.0174021 0.000116 -1.67855 -0.615017 -1.81033 2650 
208 1 -0.0106128 -0.00538211 -0.0178449 0.000116 -1.5245 -0.368242 -2.99563 2650 
606 1 -0.000183 0.00524833 -0.016592 0.000116 0 -0.011753 0 2650 
3503 1 -0.000937104 0.0121874 -0.01668 4.2e-05 0.176963 -0.166707 0.0906602 2650 
2713 1 -0.000763 0.0122193 -0.016767 0.000116 0 -0.011753 0 2650 
4187 1 -0.00145094 -0.00146286 -0.0164059 0.000423 -0.151884 -0.685302 0.157587 2650 
4116 1 -0.004072 -0.000408665 -0.016193 0.000116 0 -0.011753 0 2650 
93 1 -0.00354 2.33452e-06 -0.016299 0.000116 0 -0.011753 0 2650 
1991 1 -0.002768 0.00158133 -0.01599 0.000656 0 -0.011753 0 2650 
736 1 -0.003429 0.00317333 -0.016474 0.000116 0 -0.011753 0 2650 
3645 1 -0.000954281 0.00329608 -0.0162813 0.000423 -0.0852993 0.0423324 -0.125763 2650 
2013 1 -0.003166 0.00435233 -0.016002 0.000423 0 -0.011753 0 2650 
3546 1 -0.002797 0.00631033 -0.016252 0.000423 0 -0.011753 0 2650 
2301 1 -0.004222 0.00702133 -0.016305 4.2e-05 0 -0.011753 0 2650 
188 1 -0.00068 0.00679033 -0.016516 0.000116 0 -0.011753 0 2650 
3616 1 -0.000938 0.00758533 -0.016074 4.2e-05 0 -0.011753 0 2650 
2763 1 -0.00347234 0.0088291 -0.0158276 0.000423 0.0436915 -0.270126 0.260005 2650 
3934 1 -0.001977 0.0100103 -0.016218 0.000116 0 -0.011753 0 2650 
2250 1 -0.00032549 0.00976087 -0.0160537 0.000423 -0.434496 0.182052 0.246023 2650 
1357 1 -0.001313 0.0104263 -0.015969 0.000423 0 -0.011753 0 2650 
225 1 -4e-05 0.0115933 -0.015887 0.000656 0 -0.011753 0 2650 
1371 1 -0.000861979 0.0126599 -0.0163418 0.000423 0.283284 -0.0857091 0.0510144 2650 
1525 1 -0.00545649 0.0153997 -0.0158946 0.000116 0.0348354 0.358887 0.286739 2650 
2806 1 -0.00191 -0.00270467 -0.015728 0.000116 0 -0.011753 0 2650 
691 1 -0.000661 -0.00276567 -0.015761 0.000423 0 -0.011753 0 2650 
3441 1 -0.005522 -0.00207467 -0.01502 0.000423 0 -0.011753 0 2650 
508 1 -0.00387548 -0.000845466 -0.0152379 0.000116 0.265738 0.0515207 -0.878704 2650 
4038 1 -0.00126065 -0.00123925 -0.0153447 0.000116 0.125245 -0.284597 -0.0550816 2650 
3733 1 -0.00236969 -0.00068914 -0.0152494 0.000656 -0.00333791 -0.0129868 -0.000199741 2650 
330 1 -0.001698 -0.000733665 -0.015557 4.2e-05 0 -0.011753 0 2650 
2965 1 -2.2e-05 -0.000427665 -0.015341 4.2e-05 0 -0.011753 0 2650 
1679 1 -0.00364837 0.0037156 -0.0153767 0.000423 -0.00171971 -0.000820303 0.00170729 2650 
1569 1 -0.001572 0.00381733 -0.015407 0.000423 0 -0.011753 0 2650 
3147 1 -0.001711 0.00436533 -0.015157 0.000116 0 -0.011753 0 2650 
2399 1 -0.002418 0.00546233 -0.015541 0.000116 0 -0.011753 0 2650 
4296 1 -0.00156331 0.00605468 -0.0155079 0.000423 -0.000356005 -0.0132873 -0.00240934 2650 
1986 1 -0.00411789 0.00706064 -0.0153798 0.000656 -0.00578738 0.0209481 -0.0282702 2650 
728 1 -0.00187319 0.00703605 -0.015444 0.000116 -0.0974289 0.166407 -0.102141 2650 
3789 1 -0.002891 0.00736533 -0.015118 0.000116 0 -0.011753 0 2650 
2969 1 -0.001381 0.00803233 -0.015354 0.000656 0 -0.011753 0 2650 
978 1 -0.005372 0.00870833 -0.015286 0.000116 0 -0.011753 0 2650 
3830 1 -0.006879 0.0115623 -0.015411 4.2e-05 0 -0.011753 0 2650 
86 1 -0.002064 0.0112663 -0.015055 0.000116 0 -0.011753 0 2650 
3177 1 -0.001068 0.0110663 -0.015412 4.2e-05 0 -0.011753 0 2650 
938 1 -0.000869 0.0124723 -0.015416 0.000116 0 -0.011753 0 2650 
3632 1 -0.006134 0.0131883 -0.015144 0.000423 0 -0.011753 0 2650 
1654 1 -0.00207934 0.0137196 -0.0153624 0.000656 0.177779 0.189864 0.355705 2650 
1604 1 -0.00446978 0.0419494 -0.0151921 0.000116 3.06265 -3.05139 0.42983 2650 
2256 1 -0.001753 -0.00262367 -0.014775 0.000116 0 -0.011753 0 2650 
747 1 -0.001416 -0.00260367 -0.014317 0.000116 0 -0.011753 0 2650 
3502 1 -0.001236 -0.00162867 -0.014816 4.2e-05 0 -0.011753 0 2650 
3156 1 -0.00141025 -0.000978452 -0.014963 0.000116 0.1015 -0.252562 0.115309 2650 
1640 1 -0.001358 -0.000295665 -0.014495 4.2e-05 0 -0.011753 0 2650 
2313 1 -0.005044 0.000548335 -0.014923 0.000656 0 -0.011753 0 2650 
2413 1 -0.003433 0.000386335 -0.014868 4.2e-05 0 -0.011753 0 2650 
249 1 -0.00693297 0.00103159 -0.0148822 0.000423 -0.217684 -0.155487 0.288832 2650 
1053 1 -0.007469 0.00162033 -0.014946 0.000116 0 -0.011753 0 2650 
3385 1 -0.00524479 0.00176192 -0.014606 0.000116 0.172483 -0.186333 0.390817 2650 
2332 1 -0.003268 0.00191133 -0.014853 0.000423 0 -0.011753 0 2650 
3239 1 -0.002155 0.00183033 -0.014442 0.000116 0 -0.011753 0 2650 
2547 1 -0.00630178 0.00306294 -0.0148054 0.000423 -0.0835247 0.0612723 -0.0363848 2650 
1589 1 -0.007232 0.00323133 -0.014646 0.000423 -0.125399 0.0361393 0.00480898 2650 
220 1 -0.003649 0.00452533 -0.014897 4.2e-05 0 -0.011753 0 2650 
3121 1 -0.007407 0.00534433 -0.014654 0.000423 0 -0.011753 0 2650 
4165 1 -0.005563 0.00487433 -0.014782 0.000656 0 -0.011753 0 2650 
104 1 -0.00218 0.00477433 -0.014554 4.2e-05 0 -0.011753 0 2650 
3322 1 -0.00401882 0.00604594 -0.0147635 0.000423 -0.0209456 -0.0191109 -0.033031 2650 
2438 1 -0.005612 0.00782333 -0.014612 0.000423 0 -0.011753 0 2650 
3365 1 -0.002315 0.00788833 -0.014552 0.000116 0 -0.011753 0 2650 
3564 1 -0.000147 0.00725133 -0.014738 0.000423 0 -0.011753 0 2650 
713 1 -0.003882 0.00813233 -0.014783 0.000423 0 -0.011753 0 2650 
4190 1 -0.007319 0.00955833 -0.014559 0.000423 0 -0.011753 0 2650 
4365 1 -0.00404667 0.00954149 -0.014299 0.000116 -0.339926 0.407991 -0.0708734 2650 
3515 1 -0.004726 0.00988733 -0.014755 0.000656 0 -0.011753 0 2650 
1346 1 -0.00128496 0.0094852 -0.0144791 0.000423 0.0189012 0.200544 -0.105528 2650 
884 1 -0.00406375 0.0115737 -0.014925 0.000656 -0.0378318 0.0387573 -0.0430688 2650 
1228 1 -0.001302 0.0113433 -0.014946 0.000423 0 -0.011753 0 2650 
371 1 -0.000507 0.0111413 -0.014221 0.000423 0 -0.011753 0 2650 
1173 1 -0.0076168 0.0228484 -0.0142241 0.000116 -0.423529 1.32742 0.830452 2650 
3229 1 -0.006614 -0.00250567 -0.01374 0.000423 0 -0.011753 0 2650 
327 1 -0.003849 -0.00238567 -0.013874 4.2e-05 0 -0.011753 0 2650 
1943 1 -0.002925 -0.00307767 -0.01374 0.000116 0 -0.011753 0 2650 
2705 1 -0.001432 -0.00256667 -0.013674 0.000116 0 -0.011753 0 2650 
2939 1 -0.008405 -0.00158267 -0.013483 0.000116 0 -0.011753 0 2650 
3622 1 -0.005521 -0.00174167 -0.013445 0.000656 0 -0.011753 0 2650 
1393 1 -0.009523 -0.00127867 -0.013534 0.000116 0 -0.011753 0 2650 
3295 1 -0.00170291 -0.00152178 -0.0134212 0.000656 -0.0326807 -0.0261897 -0.0816896 2650 
2685 1 -0.006984 -0.000560665 -0.013534 0.000423 0 -0.011753 0 2650 
2783 1 -0.003328 -0.000243665 -0.013758 0.000423 0 -0.011753 0 2650 
4126 1 -0.001667 -0.000170665 -0.013741 0.000116 0 -0.011753 0 2650 
3303 1 -0.0065202 0.000308966 -0.0141322 0.000656 -0.0138519 -0.079154 0.0457834 2650 
3778 1 -0.003893 0.00127333 -0.013816 0.000423 0 -0.011753 0 2650 
2701 1 -0.00542757 0.00291477 -0.0134279 0.000116 0.264721 0.173424 -0.282759 2650 
1620 1 -0.008456 0.00329233 -0.013856 0.000116 0 -0.011753 0 2650 
1059 1 -0.00645995 0.00328693 -0.0137827 0.000116 0.104302 0.290406 -0.257483 2650 
3587 1 -0.006279 0.00454933 -0.013694 0.000116 0 -0.011753 0 2650 
1219 1 -0.005131 0.00398933 -0.013785 0.000656 0 -0.011753 0 2650 
2485 1 -0.006627 0.00489633 -0.014195 0.000116 0 -0.011753 0 2650 
1327 1 -0.00497645 0.00600734 -0.0136972 0.000656 -0.255684 0.121333 -0.00604305 2650 
3035 1 -0.00875 0.00749533 -0.013893 0.000116 0 -0.011753 0 2650 
2777 1 -0.00411439 0.00713419 -0.0140747 0.000423 -0.0156669 0.141209 -0.0360034 2650 
1288 1 -0.002467 0.00919133 -0.014044 0.000116 0 -0.011753 0 2650 
1974 1 -0.0021 0.00991233 -0.01365 4.2e-05 0 -0.011753 0 2650 
171 1 -0.001998 0.00981333 -0.013459 0.000116 0 -0.011753 0 2650 
2222 1 -0.000169 0.00982033 -0.014111 0.000423 0 -0.011753 0 2650 
581 1 -0.005568 0.0107123 -0.014167 0.000423 0 -0.011753 0 2650 
4314 1 -0.002273 0.0110193 -0.013891 0.000423 0 -0.011753 0 2650 
1476 1 -0.006941 0.0119913 -0.013435 0.000423 0 -0.011753 0 2650 
3669 1 -0.000597 0.0120973 -0.014068 0.000423 0 -0.011753 0 2650 
1409 1 -0.00044 0.0129713 -0.013868 0.000116 0 -0.011753 0 2650 
3294 1 -0.00405708 0.0165115 -0.0138473 0.000656 -0.153178 0.532354 -0.151969 2650 
1957 1 -0.002061 -0.00327567 -0.012986 0.000116 0 -0.011753 0 2650 
428 1 -0.00922 -0.00253667 -0.013206 0.000116 0 -0.011753 0 2650 
3015 1 -0.008364 -0.00259167 -0.013043 0.000423 0 -0.011753 0 2650 
827 1 -0.005975 -0.00270967 -0.013005 0.000116 0 -0.011753 0 2650 
167 1 -0.004273 -0.00255167 -0.012826 0.000116 0 -0.011753 0 2650 
2732 1 -0.002992 -0.00261667 -0.013183 0.000116 0 -0.011753 0 2650 
3633 1 -0.00941 -0.00201267 -0.013111 0.000423 0 -0.011753 0 2650 
1487 1 -0.004643 -0.00214267 -0.013241 0.000116 0 -0.011753 0 2650 
1924 1 -0.0104325 0.000145348 -0.0126794 0.000423 0.0561302 -0.0261987 -0.012502 2650 
3551 1 -0.005293 0.00133233 -0.013215 0.000423 0 -0.011753 0 2650 
1901 1 -0.00266732 0.00171298 -0.0131899 0.000423 -0.0507742 -0.0533762 0.0503681 2650 
1125 1 -0.000165 0.00191933 -0.013134 0.000423 0 -0.011753 0 2650 
2253 1 -0.00575114 0.00284518 -0.0128699 0.000423 0.281117 0.277772 -0.126151 2650 
4371 1 -0.000719 0.00273033 -0.012831 0.000116 0 -0.011753 0 2650 
2283 1 -0.000701 0.00304533 -0.012847 0.000116 0 -0.011753 0 2650 
2525 1 -0.004063 0.00341833 -0.013231 4.2e-05 0 -0.011753 0 2650 
1595 1 -0.007474 0.00407633 -0.012756 0.000423 0 -0.011753 0 2650 
2619 1 -0.005851 0.00423433 -0.012854 0.000116 0 -0.011753 0 2650 
3880 1 -0.010277 0.00515033 -0.012913 0.000423 0 -0.011753 0 2650 
2609 1 -0.00886 0.00495833 -0.013248 0.000116 0 -0.011753 0 2650 
933 1 -0.00579277 0.00549938 -0.013186 0.000423 -0.205621 0.0138782 0.00393424 2650 
2194 1 -0.002781 0.00537233 -0.012701 4.2e-05 0 -0.011753 0 2650 
2918 1 -0.00757 0.00630933 -0.012948 0.000116 0 -0.011753 0 2650 
3917 1 -0.003984 0.00571933 -0.012703 0.000116 0 -0.011753 0 2650 
2059 1 -0.003583 0.00592833 -0.012756 0.000116 0 -0.011753 0 2650 
4241 1 -0.00121 0.00580333 -0.012987 0.000116 0 -0.011753 0 2650 
4078 1 -0.005942 0.00725533 -0.013134 0.000423 0 -0.011753 0 2650 
2322 1 -0.00688 0.00846033 -0.013337 0.000656 0 -0.011753 0 2650 
1427 1 -0.002948 0.00825933 -0.013376 4.2e-05 0 -0.011753 0 2650 
3259 1 -0.008055 0.00932433 -0.013388 0.000116 0 -0.011753 0 2650 
4318 1 -0.007675 0.00899833 -0.012829 0.000423 0 -0.011753 0 2650 
1900 1 -0.00213116 0.00903925 -0.0132963 0.000423 -0.1762 0.273782 0.0946679 2650 
1795 1 -0.008775 0.0102583 -0.012959 0.000423 0 -0.011753 0 2650 
1769 1 -0.004822 0.0101793 -0.013243 0.000656 0 -0.011753 0 2650 
205 1 -0.000744 0.0109753 -0.01334 0.000116 0 -0.011753 0 2650 
4160 1 -0.006657 0.0133413 -0.013271 4.2e-05 0 -0.011753 0 2650 
1775 1 -0.008218 0.0136503 -0.012996 0.000423 0 -0.011753 0 2650 
3644 1 -0.000733 0.0136463 -0.013392 0.000423 0 -0.011753 0 2650 
2722 1 -0.00583242 0.0163524 -0.0130518 0.000116 -0.375324 0.405951 -0.00725073 2650 
3143 1 -0.0070636 -0.0206003 -0.0120767 0.000116 -1.08064 -2.08981 -2.06011 2650 
4068 1 -0.001953 -0.00285067 -0.012327 0.000423 0 -0.011753 0 2650 
868 1 -0.000201 -0.00238267 -0.012301 0.000116 0 -0.011753 0 2650 
2957 1 -0.010592 -0.00233267 -0.012102 4.2e-05 0 -0.011753 0 2650 
2238 1 -0.00701 -0.00211867 -0.01254 0.000423 0 -0.011753 0 2650 
4150 1 -0.001319 -0.00200767 -0.012208 0.000116 0 -0.011753 0 2650 
3261 1 -0.010456 -0.00115867 -0.012294 0.000116 0 -0.011753 0 2650 
3200 1 -0.006116 -0.00119867 -0.012539 0.000423 0 -0.011753 0 2650 
2819 1 -0.007468 -2.26655e-05 -0.012046 0.000116 0 -0.011753 0 2650 
2468 1 -0.003167 -0.000183665 -0.012131 0.000423 0 -0.011753 0 2650 
545 1 -0.002328 -0.000556665 -0.012432 4.2e-05 0 -0.011753 0 2650 
950 1 -0.010031 0.000709335 -0.011866 0.000116 0 -0.011753 0 2650 
250 1 -0.009469 0.000249335 -0.012384 0.000423 0 -0.011753 0 2650 
4056 1 -0.00624578 0.000160191 -0.0125611 0.000656 0.0462266 -0.0722383 -0.102085 2650 
1763 1 -0.001143 0.000104335 -0.012442 0.000656 0 -0.011753 0 2650 
3643 1 -0.004315 0.00115133 -0.012192 0.000423 0 -0.011753 0 2650 
3637 1 -0.002026 0.00128333 -0.012108 0.000423 0 -0.011753 0 2650 
3411 1 -0.009662 0.00187833 -0.012148 0.000656 0 -0.011753 0 2650 
2293 1 -0.00513514 0.0019969 -0.0120939 0.000116 0.310609 0.0311192 0.0518803 2650 
1422 1 -0.003881 0.00195033 -0.012349 4.2e-05 0 -0.011753 0 2650 
623 1 -0.005429 0.00245733 -0.012246 0.000116 0 -0.011753 0 2650 
1799 1 -0.003237 0.00276533 -0.012061 0.000423 0 -0.011753 0 2650 
2813 1 -1e-05 0.00261733 -0.012237 0.000116 0 -0.011753 0 2650 
3956 1 -0.008956 0.00353633 -0.012273 0.000656 0 -0.011753 0 2650 
3201 1 -0.004366 0.00351133 -0.012379 0.000423 0 -0.011753 0 2650 
2690 1 -0.000333 0.00338833 -0.012265 0.000423 0 -0.011753 0 2650 
3389 1 -0.010415 0.00421633 -0.012026 0.000116 0 -0.011753 0 2650 
856 1 -0.00389 0.00443533 -0.0119 0.000116 0 -0.011753 0 2650 
1657 1 -0.00850452 0.00540756 -0.0119921 0.000656 -0.00770092 -0.0112608 -0.00233815 2650 
2471 1 -0.00614538 0.00544646 -0.0123576 0.000423 -0.0907234 0.0202287 0.0449903 2650 
411 1 -0.009436 0.00588433 -0.012079 0.000116 0 -0.011753 0 2650 
3826 1 -0.009208 0.00611133 -0.012552 0.000116 0 -0.011753 0 2650 
3316 1 -0.008979 0.00686433 -0.012376 0.000423 0 -0.011753 0 2650 
1261 1 -0.007462 0.00676833 -0.012403 0.000423 0 -0.011753 0 2650 
3362 1 -0.002672 0.00687733 -0.012199 0.000116 0 -0.011753 0 2650 
3446 1 -0.002592 0.00787133 -0.012627 0.000423 0 -0.011753 0 2650 
1590 1 -0.008874 0.00805833 -0.012037 0.000423 0 -0.011753 0 2650 
4066 1 -0.006253 0.00829833 -0.011956 0.000656 0 -0.011753 0 2650 
3030 1 -0.001189 0.00837433 -0.012596 0.000116 0 -0.011753 0 2650 
70 1 -0.010029 0.00929933 -0.01242 0.000116 0 -0.011753 0 2650 
191 1 -0.011348 0.00969533 -0.012254 0.000116 0 -0.011753 0 2650 
1495 1 -0.004483 0.00984233 -0.012591 0.000116 0 -0.011753 0 2650 
3847 1 -0.009739 0.0102963 -0.012406 0.000656 0 -0.011753 0 2650 
1250 1 -0.007399 0.0110213 -0.012448 0.000423 0 -0.011753 0 2650 
3173 1 -0.004958 0.0105033 -0.012321 4.2e-05 0 -0.011753 0 2650 
2109 1 -0.001932 0.0106423 -0.012277 0.000423 0 -0.011753 0 2650 
2630 1 -0.001036 0.0107113 -0.012074 4.2e-05 0 -0.011753 0 2650 
4002 1 -0.000443 0.0105353 -0.01223 0.000116 0 -0.011753 0 2650 
911 1 -0.00410188 0.0115431 -0.0123837 0.000423 -0.0142707 -0.015291 -0.00505979 2650 
65 1 -0.009488 0.0119163 -0.011959 0.000116 0 -0.011753 0 2650 
1423 1 -0.00145 0.0121913 -0.012526 4.2e-05 0 -0.011753 0 2650 
2483 1 -0.008006 0.0130733 -0.012441 0.000116 0 -0.011753 0 2650 
1578 1 -0.007713 0.0129123 -0.011972 0.000423 0 -0.011753 0 2650 
2205 1 -0.004822 0.0133623 -0.012334 0.000656 0 -0.011753 0 2650 
3330 1 -0.00422789 -0.00480527 -0.0115679 0.000423 -0.579681 -0.552989 -0.571057 2650 
704 1 -0.01034 -0.00280367 -0.011479 0.000423 0 -0.011753 0 2650 
3999 1 -0.005715 -0.00264767 -0.011742 0.000423 0 -0.011753 0 2650 
3679 1 -0.012092 -0.00184567 -0.011604 0.000116 0 -0.011753 0 2650 
2072 1 -0.009308 -0.00198367 -0.011721 0.000116 0 -0.011753 0 2650 
3191 1 -0.00346743 -0.00161148 -0.0114749 0.000656 -0.0505784 0.0119691 -0.00142744 2650 
3505 1 -0.006952 -0.000887665 -0.011235 4.2e-05 0 -0.011753 0 2650 
1022 1 -0.002093 -0.00101767 -0.011454 0.000423 0 -0.011753 0 2650 
123 1 -0.010848 -0.000323665 -0.011246 0.000423 0 -0.011753 0 2650 
2166 1 -0.009005 -0.000477665 -0.011549 0.000116 0 -0.011753 0 2650 
2022 1 -0.004959 -0.000322665 -0.011261 0.000423 0 -0.011753 0 2650 
2827 1 -0.001988 0.000651335 -0.011163 0.000116 0 -0.011753 0 2650 
440 1 -0.00061 0.000414335 -0.011485 4.2e-05 0 -0.011753 0 2650 
3311 1 -0.00736173 0.000863919 -0.0113015 0.000423 -0.426786 0.143506 -0.100699 2650 
1452 1 -0.00142 0.00235333 -0.011258 0.000423 0 -0.011753 0 2650 
4215 1 -0.011184 0.00252333 -0.011524 0.000423 0 -0.011753 0 2650 
2279 1 -0.011345 0.00308633 -0.01145 0.000116 0 -0.011753 0 2650 
2579 1 -0.008716 0.00253333 -0.011261 0.000423 0 -0.011753 0 2650 
3535 1 -9.9e-05 0.00282633 -0.011488 0.000423 0 -0.011753 0 2650 
3223 1 -0.010476 0.00362833 -0.011335 0.000423 0 -0.011753 0 2650 
3894 1 -0.005583 0.00358533 -0.011098 0.000116 0 -0.011753 0 2650 
1717 1 -0.0116618 0.00467303 -0.0114892 0.000116 -0.549354 0.418362 -0.764987 2650 
1063 1 -0.009531 0.00414033 -0.011683 0.000116 0 -0.011753 0 2650 
3383 1 -0.011681 0.00513533 -0.011229 0.000116 0 -0.011753 0 2650 
3235 1 -0.00633851 0.004901 -0.0117064 0.000423 -0.00988696 -0.0212582 0.0528137 2650 
3542 1 -0.003838 0.00531133 -0.011253 0.000423 0 -0.011753 0 2650 
1826 1 -0.00774405 0.00588634 -0.0115801 0.000116 0.0475356 1.0173 0.39527 2650 
2294 1 -0.004894 0.00582133 -0.011565 0.000116 0 -0.011753 0 2650 
878 1 -0.003908 0.00630433 -0.011202 4.2e-05 0 -0.011753 0 2650 
708 1 -0.00252 0.00601733 -0.011391 0.000423 0 -0.011753 0 2650 
1822 1 -0.008034 0.00687433 -0.011166 0.000116 0 -0.011753 0 2650 
234 1 -0.004437 0.00684733 -0.011677 0.000423 0 -0.011753 0 2650 
1215 1 -0.009596 0.00742833 -0.01151 0.000656 0 -0.011753 0 2650 
1758 1 -0.00201 0.00713533 -0.01144 4.2e-05 0 -0.011753 0 2650 
4027 1 -0.003218 0.00826633 -0.011075 0.000116 0 -0.011753 0 2650 
2409 1 -0.002586 0.00820533 -0.011527 4.2e-05 0 -0.011753 0 2650 
222 1 -0.001264 0.00825333 -0.011144 0.000656 0 -0.011753 0 2650 
2798 1 -0.008755 0.00930533 -0.01131 0.000423 0 -0.011753 0 2650 
2913 1 -0.002971 0.00891433 -0.011434 0.000116 0 -0.011753 0 2650 
823 1 -0.000639 0.00944033 -0.011216 0.000423 0 -0.011753 0 2650 
1617 1 -0.00424 0.0101943 -0.011492 0.000116 0 -0.011753 0 2650 
2596 1 -0.001219 0.00974933 -0.011432 0.000116 0 -0.011753 0 2650 
3684 1 -0.00483 0.0114763 -0.011273 0.000116 0 -0.011753 0 2650 
1935 1 -0.00269257 0.0113299 -0.0112847 0.000116 -0.0650223 -0.119388 0.0262199 2650 
1663 1 -0.009704 0.0125893 -0.011499 0.000423 0 -0.011753 0 2650 
3145 1 -0.006381 0.0126573 -0.011273 0.000116 0 -0.011753 0 2650 
1143 1 -0.00203603 0.0127102 -0.011626 0.000423 0.00744219 0.00969658 -0.00437689 2650 
2111 1 -0.009632 0.0135763 -0.011343 0.000423 0 -0.011753 0 2650 
976 1 -0.005828 0.0140343 -0.011785 0.000116 0 -0.011753 0 2650 
734 1 -0.00346663 -0.00504619 -0.0107669 0.000116 -0.507157 -0.506431 -0.584273 2650 
2820 1 -0.007052 -0.00262767 -0.010962 0.000116 0 -0.011753 0 2650 
3265 1 -0.006001 -0.00263967 -0.010684 0.000116 0 -0.011753 0 2650 
821 1 -0.00540392 -0.00298633 -0.0105378 0.000423 -0.102839 -0.168933 -0.196716 2650 
4373 1 -0.004239 -0.00162167 -0.010869 4.2e-05 0 -0.011753 0 2650 
3426 1 -0.000992 -0.00188167 -0.010574 0.000423 0 -0.011753 0 2650 
3603 1 -0.004768 -0.00128367 -0.010424 0.000116 0 -0.011753 0 2650 
15 1 -0.001892 -0.00123067 -0.010407 0.000423 0 -0.011753 0 2650 
2848 1 -0.010456 -0.000586665 -0.010698 4.2e-05 0 -0.011753 0 2650 
3640 1 -0.009654 -0.000425665 -0.010891 0.000423 0 -0.011753 0 2650 
2130 1 -0.000316 -0.000166665 -0.010491 0.000423 0 -0.011753 0 2650 
3960 1 -0.008634 0.000321335 -0.010875 0.000423 0 -0.011753 0 2650 
3093 1 -0.002889 8.33452e-06 -0.010782 0.000423 0 -0.011753 0 2650 
1193 1 -4.3e-05 0.000399335 -0.010628 0.000116 0 -0.011753 0 2650 
3866 1 -0.011939 0.00137533 -0.01034 0.000423 0 -0.011753 0 2650 
281 1 -0.00973 0.00109133 -0.010656 0.000116 0 -0.011753 0 2650 
388 1 -0.008271 0.000917335 -0.010879 0.000116 0 -0.011753 0 2650 
2542 1 -0.005905 0.00120233 -0.010347 0.000423 0 -0.011753 0 2650 
3673 1 -0.00272 0.000863335 -0.010833 0.000423 0 -0.011753 0 2650 
3284 1 -0.001323 0.000888335 -0.010635 4.2e-05 0 -0.011753 0 2650 
3530 1 -0.000573 0.00135833 -0.010526 0.000423 0 -0.011753 0 2650 
1233 1 -0.012882 0.00251733 -0.010287 0.000423 0 -0.011753 0 2650 
4104 1 -0.009745 0.00327633 -0.010868 0.000423 0 -0.011753 0 2650 
497 1 -0.00574 0.00351133 -0.010398 0.000116 0 -0.011753 0 2650 
124 1 -0.005032 0.00341633 -0.01051 0.000423 0 -0.011753 0 2650 
1192 1 -0.004051 0.00373533 -0.010435 0.000116 0 -0.011753 0 2650 
2912 1 -0.006578 0.00567833 -0.010859 0.000116 0 -0.011753 0 2650 
3787 1 -0.006362 0.00611433 -0.010668 0.000116 0 -0.011753 0 2650 
861 1 -0.006339 0.00662533 -0.010358 0.000116 0 -0.011753 0 2650 
760 1 -0.006943 0.00645133 -0.010573 4.2e-05 0 -0.011753 0 2650 
2326 1 -0.011808 0.00740433 -0.010725 0.000423 0 -0.011753 0 2650 
2948 1 -0.002008 0.00781733 -0.010384 0.000116 0 -0.011753 0 2650 
2500 1 -0.010648 0.00800033 -0.010771 0.000116 0 -0.011753 0 2650 
4166 1 -0.004213 0.00810733 -0.01052 0.000656 0 -0.011753 0 2650 
3727 1 -0.004412 0.00875533 -0.010287 4.2e-05 0 -0.011753 0 2650 
3456 1 -0.003405 0.00889233 -0.010654 0.000423 0 -0.011753 0 2650 
1010 1 -0.011662 0.0100133 -0.010903 0.000423 0 -0.011753 0 2650 
3132 1 -0.007716 0.0100763 -0.01033 0.000116 0 -0.011753 0 2650 
2097 1 -0.00889 0.0105693 -0.010395 0.000656 0 -0.011753 0 2650 
89 1 -0.003936 0.0106213 -0.010466 0.000116 0 -0.011753 0 2650 
2861 1 -0.000432863 0.0109835 -0.0110247 0.000656 0.0605678 -0.014212 0.00425057 2650 
2759 1 -0.011495 0.0115693 -0.010915 0.000656 0 -0.011753 0 2650 
1376 1 -0.009927 0.0113153 -0.010971 0.000116 0 -0.011753 0 2650 
2261 1 -0.007381 0.0116663 -0.010514 0.000116 0 -0.011753 0 2650 
2260 1 -0.008542 0.0122873 -0.010892 0.000116 0 -0.011753 0 2650 
233 1 -0.004974 0.0119023 -0.010958 0.000423 0 -0.011753 0 2650 
4167 1 -0.003538 0.0120093 -0.010916 0.000656 0 -0.011753 0 2650 
499 1 -0.011613 0.0130373 -0.010379 0.000116 0 -0.011753 0 2650 
1754 1 -0.008854 0.0131433 -0.010611 4.2e-05 0 -0.011753 0 2650 
1913 1 -0.008189 0.0132773 -0.010954 0.000423 0 -0.011753 0 2650 
3899 1 -0.004387 0.0131613 -0.010427 0.000116 0 -0.011753 0 2650 
1802 1 -0.004638 0.0126623 -0.010282 0.000423 0 -0.011753 0 2650 
3595 1 -0.007357 0.0138463 -0.010628 0.000116 0 -0.011753 0 2650 
3767 1 -0.006013 0.0137623 -0.010843 0.000423 0 -0.011753 0 2650 
963 1 -0.000669 0.0138253 -0.010387 0.000116 0 -0.011753 0 2650 
1068 1 -0.01118 -0.00282667 -0.009643 0.000116 0 -0.011753 0 2650 
4285 1 -0.0094 -0.00269167 -0.00984 0.000423 0 -0.011753 0 2650 
3933 1 -0.006596 -0.00192067 -0.009623 0.000116 0 -0.011753 0 2650 
3652 1 -0.0109491 -0.00157882 -0.00957936 0.000423 -0.0103103 -0.0416486 0.00256542 2650 
939 1 -0.001916 -0.000864665 -0.009682 0.000116 0 -0.011753 0 2650 
1630 1 -0.00227 -0.000799665 -0.00958 0.000116 0 -0.011753 0 2650 
3756 1 -0.00734452 -0.000402726 -0.00987976 0.000423 -0.261945 -0.0993671 0.0936614 2650 
417 1 -0.004944 -0.000554665 -0.009884 0.000116 0 -0.011753 0 2650 
3460 1 -0.013084 0.000305335 -0.009951 0.000116 0 -0.011753 0 2650 
2778 1 -0.01202 0.000570335 -0.00976 0.000423 0 -0.011753 0 2650 
1750 1 -0.011512 0.00121233 -0.01018 4.2e-05 0 -0.011753 0 2650 
1160 1 -0.010117 0.00142833 -0.010115 0.000116 0 -0.011753 0 2650 
3264 1 -0.003542 0.00139933 -0.010108 0.000116 0 -0.011753 0 2650 
1562 1 -0.002141 0.000970335 -0.010154 0.000423 0 -0.011753 0 2650 
2164 1 -0.012835 0.00183533 -0.009898 0.000116 0 -0.011753 0 2650 
800 1 -0.00114 0.00168933 -0.009738 0.000423 0 -0.011753 0 2650 
3135 1 -0.00038 0.00236533 -0.010152 0.000116 0 -0.011753 0 2650 
3832 1 -0.01255 0.00281733 -0.009616 4.2e-05 0 -0.011753 0 2650 
2975 1 -0.011752 0.00244833 -0.009985 0.000656 0 -0.011753 0 2650 
4374 1 -0.008921 0.00258333 -0.009568 4.2e-05 0 -0.011753 0 2650 
3250 1 -0.008233 0.00255633 -0.010036 0.000116 0 -0.011753 0 2650 
2436 1 -0.00538962 0.00240405 -0.00963217 0.000423 -0.247604 -0.136274 0.0277929 2650 
2729 1 -0.00856849 0.00369879 -0.00975197 0.000116 -0.712481 0.0735545 1.08199 2650 
1977 1 -0.006037 0.00382633 -0.009842 4.2e-05 0 -0.011753 0 2650 
3324 1 -0.0112649 0.00407192 -0.00997493 0.000423 -0.0148526 -0.0100043 0.0122397 2650 
3031 1 -0.011934 0.00532633 -0.00971 0.000116 0 -0.011753 0 2650 
364 1 -0.008943 0.00478633 -0.009746 0.000423 0 -0.011753 0 2650 
1381 1 -0.002525 0.00551047 -0.0098082 0.000116 0.0814598 0.325994 -0.167727 2650 
2474 1 -0.001928 0.00517033 -0.009724 0.000423 0 -0.011753 0 2650 
3790 1 -0.012918 0.00575733 -0.010098 0.000116 0 -0.011753 0 2650 
3116 1 -0.01058 0.00582733 -0.009568 0.000423 0 -0.011753 0 2650 
4256 1 -0.007946 0.00652033 -0.010197 0.000116 0 -0.011753 0 2650 
3364 1 -0.006241 0.00661933 -0.010015 0.000116 0 -0.011753 0 2650 
958 1 -0.001223 0.00632533 -0.009713 0.000116 0 -0.011753 0 2650 
1310 1 -0.011355 0.00787933 -0.010263 4.2e-05 0 -0.011753 0 2650 
3071 1 -0.009089 0.00868433 -0.009836 4.2e-05 0 -0.011753 0 2650 
3967 1 -0.007915 0.0101563 -0.009637 0.000423 0 -0.011753 0 2650 
2581 1 -0.004751 0.00968133 -0.01 0.000423 0 -0.011753 0 2650 
3784 1 -0.00735 0.0104193 -0.00989 0.000116 0 -0.011753 0 2650 
2344 1 -0.001557 0.0105823 -0.009839 0.000423 0 -0.011753 0 2650 
3361 1 -5.4e-05 0.0108313 -0.010103 0.000116 0 -0.011753 0 2650 
301 1 -0.005514 0.0117203 -0.009906 0.000116 0 -0.011753 0 2650 
660 1 -0.002925 0.0121613 -0.009723 4.2e-05 0 -0.011753 0 2650 
1087 1 -0.005985 0.0129733 -0.009545 0.000116 0 -0.011753 0 2650 
2781 1 -0.00302733 0.0132153 -0.0100174 0.000423 -0.0117237 -0.0176724 0.00043508 2650 
1827 1 -0.000405 0.0126663 -0.009578 0.000116 0 -0.011753 0 2650 
4353 1 -0.0020434 -0.00422015 -0.00922248 0.000116 -0.581671 -0.432913 -1.34475 2650 
3409 1 -0.008283 -0.00266667 -0.009387 0.000656 0 -0.011753 0 2650 
2846 1 -0.006122 -0.00300667 -0.009068 4.2e-05 0 -0.011753 0 2650 
2224 1 -0.004317 -0.00267067 -0.008931 0.000423 0 -0.011753 0 2650 
1239 1 -0.00329947 -0.00299509 -0.00887552 0.000423 -0.0112942 -0.0224869 -0.0158758 2650 
1787 1 -0.012291 -0.00163467 -0.008935 0.000423 0 -0.011753 0 2650 
756 1 -0.007322 -0.00165567 -0.009147 0.000116 0 -0.011753 0 2650 
661 1 -0.00796351 -0.0012194 -0.00940171 0.000656 0.0055945 -0.0143672 0.00275546 2650 
811 1 -0.00139935 -0.00145846 -0.00869232 0.000423 -0.317633 -0.0992219 0.0180536 2650 
3393 1 -0.006109 -0.000395665 -0.008736 4.2e-05 0 -0.011753 0 2650 
1690 1 -0.004681 -0.000518665 -0.00917 0.000423 0 -0.011753 0 2650 
159 1 -0.005821 0.000216335 -0.009096 0.000423 0 -0.011753 0 2650 
193 1 -0.010056 0.00197033 -0.009264 0.000116 0 -0.011753 0 2650 
3935 1 -0.006505 0.00218733 -0.009315 0.000116 0 -0.011753 0 2650 
3450 1 -0.011877 0.00275933 -0.008756 0.000423 0 -0.011753 0 2650 
1184 1 -0.011934 0.00301133 -0.00927 0.000116 0 -0.011753 0 2650 
608 1 -0.01048 0.00252933 -0.008875 0.000116 0 -0.011753 0 2650 
2299 1 -0.003792 0.00242333 -0.009457 4.2e-05 0 -0.011753 0 2650 
1121 1 -0.002698 0.00264133 -0.00928 0.000423 0 -0.011753 0 2650 
3219 1 -0.00103365 0.00251688 -0.008935 0.000423 0.157702 -0.0561135 -0.0658825 2650 
4013 1 -0.00564061 0.00334035 -0.00941205 0.000116 -0.113625 0.387526 0.0076419 2650 
2541 1 -0.006562 0.00426833 -0.009245 0.000656 0 -0.011753 0 2650 
3558 1 -0.007141 0.00550233 -0.00937 0.000423 0 -0.011753 0 2650 
1171 1 -0.008755 0.00615933 -0.00943 0.000116 0 -0.011753 0 2650 
1584 1 -0.005051 0.00705333 -0.00882 0.000423 0 -0.011753 0 2650 
373 1 -0.01088 0.00738133 -0.009322 0.000423 0 -0.011753 0 2650 
842 1 -0.010207 0.00768433 -0.009055 0.000116 0 -0.011753 0 2650 
1567 1 -0.008425 0.00711833 -0.008875 0.000423 0 -0.011753 0 2650 
2633 1 -0.005185 0.00763433 -0.009252 4.2e-05 0 -0.011753 0 2650 
3984 1 -0.012135 0.00797033 -0.009019 0.000423 0 -0.011753 0 2650 
949 1 -0.004033 0.00818533 -0.009175 0.000116 0 -0.011753 0 2650 
4077 1 -0.012422 0.00920633 -0.00892 0.000423 0 -0.011753 0 2650 
2649 1 -0.00472 0.00909333 -0.008709 0.000656 0 -0.011753 0 2650 
368 1 -0.013572 0.00968533 -0.008947 0.000423 0 -0.011753 0 2650 
595 1 -0.009604 0.00987433 -0.009278 0.000423 0 -0.011753 0 2650 
3042 1 -0.012085 0.0109613 -0.009039 0.000116 0 -0.011753 0 2650 
2678 1 -0.01021 0.0109603 -0.009104 0.000423 0 -0.011753 0 2650 
4368 1 -0.004474 0.0102663 -0.008808 0.000116 0 -0.011753 0 2650 
1021 1 -0.012788 0.0125203 -0.008833 0.000423 0 -0.011753 0 2650 
796 1 -0.00925 0.0124863 -0.009199 0.000423 0 -0.011753 0 2650 
2094 1 -0.006452 0.0118543 -0.009074 0.000656 0 -0.011753 0 2650 
4179 1 -0.004782 0.0120213 -0.009033 0.000423 0 -0.011753 0 2650 
1859 1 -0.011231 0.0133333 -0.009139 4.2e-05 0 -0.011753 0 2650 
232 1 -0.010455 0.0133253 -0.008807 0.000656 0 -0.011753 0 2650 
449 1 -0.002169 0.0127433 -0.008811 0.000656 0 -0.011753 0 2650 
473 1 -0.006405 0.0136743 -0.009211 0.000423 0 -0.011753 0 2650 
1521 1 -0.005494 0.0136673 -0.009109 0.000116 0 -0.011753 0 2650 
947 1 -0.013531 -0.00321267 -0.00802 0.000116 0 -0.011753 0 2650 
1774 1 -0.001246 -0.00266267 -0.00814 0.000423 0 -0.011753 0 2650 
2545 1 -0.012942 -0.00222267 -0.007898 0.000423 0 -0.011753 0 2650 
4306 1 -0.009054 -0.00191567 -0.00862 0.000423 0 -0.011753 0 2650 
3204 1 -0.00782243 -0.00218027 -0.00838239 0.000423 -0.336835 -0.0406499 0.0574925 2650 
3875 1 -0.00680144 -0.00234266 -0.0086644 0.000423 -0.251518 -0.1231 0.018246 2650 
1169 1 -0.007648 -0.00134467 -0.008568 0.000116 0 -0.011753 0 2650 
2273 1 -0.013708 -0.000786665 -0.008112 0.000116 0 -0.011753 0 2650 
3482 1 -0.00291504 -0.000743815 -0.00827191 0.000116 0.00225549 -0.234656 -0.0429905 2650 
3283 1 -0.006893 6.03345e-05 -0.007981 4.2e-05 0 -0.011753 0 2650 
3599 1 -0.002399 0.00124633 -0.008331 0.000116 0 -0.011753 0 2650 
786 1 -0.000492 0.00106133 -0.008029 0.000423 0 -0.011753 0 2650 
4275 1 -0.012816 0.00387233 -0.008558 0.000656 0 -0.011753 0 2650 
932 1 -0.010541 0.00319933 -0.008145 0.000423 0 -0.011753 0 2650 
2285 1 -0.009362 0.00439733 -0.008376 0.000116 0 -0.011753 0 2650 
3011 1 -0.002993 0.00431033 -0.008536 0.000423 0 -0.011753 0 2650 
3477 1 -0.012713 0.00501333 -0.008303 0.000116 0 -0.011753 0 2650 
2385 1 -0.007736 0.00522133 -0.008312 0.000116 0 -0.011753 0 2650 
503 1 -0.004804 0.00476233 -0.007904 0.000116 0 -0.011753 0 2650 
1272 1 -0.002915 0.00478933 -0.008051 0.000116 0 -0.011753 0 2650 
3221 1 -0.002059 0.00541333 -0.008621 0.000423 0 -0.011753 0 2650 
675 1 -0.000744146 0.00528 -0.00860933 0.000423 0.000674225 0.00272039 -0.00383892 2650 
3943 1 -0.014244 0.00596333 -0.008682 4.2e-05 0 -0.011753 0 2650 