ITEM: TIMESTEP
3757704
ITEM: NUMBER OF ATOMS
4379
ITEM: BOX BOUNDS ff ff ff
-0.15 0.15
-0.15 0.06
-0.15 0.15
ITEM: ATOMS id type x y z radius vx vy vz density 
1270 1 -0.145103 -0.0625769 0.118321 0.000116 -5.70033 -0.0386996 10.1617 2650 
415 1 -0.0105009 -0.0627215 -0.07805 0.000116 -8.45753 -0.0214625 -3.34439 2650 
4133 1 -0.0134017 -0.0578038 -0.0675675 0.000116 -5.33258 0.522761 1.07551 2650 
3831 1 -0.0199501 -0.0560691 -0.0659913 4.2e-05 -9.15186 -0.265632 2.74161 2650 
2237 1 -0.0209099 -0.0493725 -0.0652777 0.000423 -4.06386 -0.00111474 1.27609 2650 
4026 1 -0.0431755 -0.0624612 -0.0536738 0.000116 -1.21886 -0.313087 1.02253 2650 
2803 1 -0.0482336 -0.0580763 -0.0491777 0.000116 -2.63439 0.174416 2.56093 2650 
3143 1 -0.0504538 -0.0624326 -0.046899 0.000116 -4.75222 0.0389074 5.133 2650 
1520 1 -0.0560311 -0.0482174 -0.0400683 0.000116 -2.9917 -0.357737 4.19517 2650 
4288 1 -0.0596381 -0.0548784 -0.0338301 0.000423 -2.01416 -0.136391 3.62882 2650 
3957 1 -0.0629059 -0.0576869 -0.0267237 0.000656 -1.72919 -0.555078 4.00133 2650 
482 1 -0.0685649 -0.0499247 0.000642699 0.000423 0.0264433 0.0847521 4.81551 2650 
1781 1 -0.0685507 -0.0496485 0.00191557 0.000423 0.261055 -0.430082 4.37506 2650 
1856 1 -0.061649 -0.0472011 0.0307315 0.000116 1.99086 0.190315 4.00678 2650 
3570 1 -0.0479464 -0.0495939 0.0494587 0.000116 3.1041 0.0348069 2.98527 2650 
418 1 -0.026955 -0.0562733 0.0633709 0.000116 7.12279 0.254126 3.07498 2650 
3073 1 -0.00771865 -0.0524389 0.068524 4.2e-05 3.29543 -0.372182 0.364917 2650 
1740 1 -0.00789118 -0.0451862 0.0684304 0.000116 3.97734 0.36188 0.471481 2650 
2162 1 -0.00137366 -0.0318719 -0.0688706 0.000116 -4.22762 0.017254 0.101942 2650 
4353 1 -0.00042934 -0.0310564 -0.0688832 0.000116 -4.78647 0.141955 0.0249745 2650 
3708 1 -0.00208511 -0.0291525 -0.0688529 0.000116 -4.08062 -0.519811 0.152289 2650 
3613 1 -0.00619223 -0.0169115 -0.0686785 4.2e-05 -3.20294 -0.364675 0.281829 2650 
1958 1 -0.0020208 -0.0170762 -0.068854 0.000116 -3.4845 -0.260178 0.0968083 2650 
3331 1 -0.00735889 -0.0421594 -0.0681819 0.000423 -3.47925 -0.887464 0.370787 2650 
2578 1 -0.00266612 -0.036544 -0.0685259 0.000423 -4.54449 0.0383262 0.162211 2650 
1568 1 -0.00063464 -0.0365405 -0.0685751 0.000423 -5.40229 0.119828 0.0425717 2650 
1249 1 -0.00684629 -0.0254313 -0.068235 0.000423 -4.38431 -0.41844 0.430494 2650 
4319 1 -0.00124806 -0.0257823 -0.0685666 0.000423 -4.20338 -0.127712 0.0860196 2650 
3945 1 -0.0084875 -0.0230897 -0.0684327 4.2e-05 -7.36052 0.147547 0.920305 2650 
4303 1 -0.00903531 -0.0183493 -0.06798 0.000423 -4.12151 0.0270942 0.530913 2650 
3034 1 -0.00905004 -0.0101893 -0.0681023 0.000116 -3.36961 -0.968201 -1.49129 2650 
312 1 -0.00974077 -0.0422786 -0.0676657 0.000116 -7.09089 -0.418866 -1.39263 2650 
1206 1 -0.014702 -0.0260261 -0.0673686 4.2e-05 -3.40817 -0.132018 0.81645 2650 
3069 1 -0.0136656 -0.0255036 -0.067588 4.2e-05 -4.325 0.808715 0.828883 2650 
169 1 -0.0137139 -0.021573 -0.0674803 0.000116 -3.67745 -0.332412 0.753496 2650 
2421 1 -0.00899427 -0.0219326 -0.0677515 0.000656 -5.33438 -0.165827 0.717478 2650 
2212 1 -0.0121077 -0.0168803 -0.0672627 0.000656 -3.69646 -0.311096 0.633472 2650 
856 1 -0.0141301 -0.00558362 -0.0674146 0.000116 -3.13053 -0.147445 0.612445 2650 
1333 1 -0.0134165 -0.00389204 -0.0672534 0.000423 -3.94935 -0.249735 0.773757 2650 
4255 1 -0.013818 -0.00254723 -0.0674819 0.000116 -3.83853 0.562218 0.804687 2650 
3330 1 -0.0175106 -0.0325192 -0.0662936 0.000423 -4.83358 -0.151854 1.40813 2650 
355 1 -0.0158211 -0.0290635 -0.066706 0.000423 -4.51528 0.0140388 1.03297 2650 
1499 1 -0.017461 -0.0235953 -0.0666297 0.000116 -4.25958 -0.104716 1.14368 2650 
3040 1 -0.0115541 -0.0209057 -0.0663637 0.000116 -4.57705 -0.224651 1.20904 2650 
3204 1 -0.0173511 -0.0140786 -0.0663362 0.000423 -4.59883 -0.120986 1.31032 2650 
2813 1 -0.0163117 -0.00299818 -0.0669199 0.000116 -3.31204 0.442088 0.730262 2650 
2970 1 -0.0194428 -0.0257507 -0.0655224 0.000656 -2.79546 -0.211438 0.779535 2650 
399 1 -0.0149363 -0.0202035 -0.0654548 0.000116 -4.78919 0.377478 3.9085 2650 
2014 1 -0.0184349 -0.00567175 -0.0660524 0.000423 -3.20014 -0.0809803 0.921139 2650 
2055 1 -0.0216497 -0.0363241 -0.0653933 0.000116 -3.86922 -0.42566 1.26941 2650 
2465 1 -0.0206749 -0.0328605 -0.065387 0.000423 -4.39147 0.0697482 1.38504 2650 
1760 1 -0.023494 -0.0317115 -0.0648325 4.2e-05 -3.60916 -0.318729 1.29474 2650 
2606 1 -0.01525 -0.00550753 -0.0647992 0.000116 -3.27431 -0.0202571 0.00404778 2650 
3536 1 -0.0243402 -0.0329687 -0.0641136 0.000423 -3.96618 -0.0959822 1.51917 2650 
2527 1 -0.0256548 -0.000645344 -0.0640079 4.2e-05 -5.688 -0.43923 2.27969 2650 
2788 1 -0.0248283 -0.00042334 -0.0639254 0.000423 -5.26889 7.13678e-05 2.04446 2650 
3519 1 -0.0253642 -0.0433539 -0.0634646 0.000656 -4.03444 -0.278943 1.63537 2650 
649 1 -0.0257361 -0.0364211 -0.0638958 0.000116 -4.10758 0.306148 1.64091 2650 
3431 1 -0.0265175 -0.0343503 -0.0632441 0.000423 -4.068 -0.22042 1.70741 2650 
2563 1 -0.0259036 -0.0085514 -0.0634983 0.000423 -6.51535 -0.376122 2.63063 2650 
2790 1 -0.0268137 -0.0310627 -0.0631195 0.000423 -3.65204 -0.752813 1.55162 2650 
343 1 -0.0271054 -0.0237752 -0.062994 0.000423 -3.01878 -0.841317 1.26095 2650 
4320 1 -0.027919 -0.0202768 -0.0626374 0.000423 -3.95214 -0.234787 1.75379 2650 
921 1 -0.0285566 -0.0169089 -0.0623494 0.000423 -4.05106 -0.0526788 1.85739 2650 
4035 1 -0.0307507 -0.0399043 -0.0616388 0.000116 -3.0921 -0.398939 1.52072 2650 
4308 1 -0.0289784 -0.0314305 -0.0621549 0.000423 -3.78587 -0.760126 1.7604 2650 
4021 1 -0.030282 -0.0225021 -0.0618707 0.000116 -3.7847 -0.113428 1.84049 2650 
2118 1 -0.028743 -0.0195573 -0.0622635 0.000423 -4.03471 -0.257804 1.86234 2650 
353 1 -0.0292278 -0.0179161 -0.0620372 0.000423 -4.01904 -0.163654 1.88399 2650 
2131 1 -0.0290747 -0.0156798 -0.0621094 0.000423 -3.29989 -0.320593 1.57391 2650 
1833 1 -0.0302453 -0.00182369 -0.0618879 0.000116 -2.21346 0.00186903 1.08145 2650 
2559 1 -0.0318163 -0.0155315 -0.0607469 0.000423 -2.91047 -0.571304 1.52513 2650 
208 1 -0.0337715 -0.0105038 -0.0600308 0.000116 -4.50486 0.281986 2.48123 2650 
8 1 -0.0348772 -0.0371613 -0.0587772 0.000656 -4.07347 -0.170757 2.39315 2650 
2201 1 -0.0365566 -0.0421001 -0.057747 0.000656 -3.82295 -0.585267 2.43736 2650 
4263 1 -0.0377308 -0.0191226 -0.0577191 4.2e-05 -3.31101 0.678962 2.12737 2650 
2395 1 -0.0396088 -0.0304223 -0.0563574 0.000116 -3.59779 -0.182104 2.57337 2650 
612 1 -0.0391905 -0.0145974 -0.0566402 0.000116 -3.11501 -0.114636 2.3007 2650 
4325 1 -0.0395436 -0.00773685 -0.0560284 0.000423 -3.54675 -0.359197 2.45444 2650 
4017 1 -0.0413042 -0.017572 -0.0551269 0.000116 -2.94474 -0.152736 2.20722 2650 
577 1 -0.0412456 -0.0161743 -0.0547873 0.000423 -3.39866 -0.511937 2.5738 2650 
908 1 -0.0415538 -0.0149206 -0.0545546 0.000423 -3.28657 -0.232267 2.51397 2650 
1051 1 -0.0428169 -0.0216738 -0.0539482 0.000116 -3.28505 -0.410118 2.48933 2650 
34 1 -0.042279 -0.00448954 -0.0539948 0.000423 -2.88555 0.0610788 2.26201 2650 
1392 1 -0.0440325 -0.0128091 -0.0529727 0.000116 -3.04669 -0.104946 2.51889 2650 
4056 1 -0.0429129 -0.0128098 -0.0531952 0.000656 -2.98355 -0.0937416 2.49531 2650 
2340 1 -0.0445682 -0.0300205 -0.052107 0.000423 -3.1639 0.00797147 2.75412 2650 
4016 1 -0.0441895 -0.0135283 -0.0528421 0.000116 -2.68642 -0.22223 2.22626 2650 
2010 1 -0.0440312 -0.00994188 -0.0525752 0.000423 -3.11496 -0.25439 2.62963 2650 
844 1 -0.0451196 -0.0304494 -0.0520432 0.000116 -3.12304 -0.328065 2.86702 2650 
733 1 -0.0455808 -0.00934431 -0.0516474 0.000116 -2.598 -0.199613 2.31319 2650 
132 1 -0.0455944 -0.0186008 -0.0512252 0.000423 -2.99492 -0.138416 2.65517 2650 
4297 1 -0.0467225 -0.0251385 -0.0501989 0.000423 -3.12229 -0.0248155 2.93207 2650 
3348 1 -0.0478141 -0.0221293 -0.0495861 0.000116 -2.97664 -0.501535 2.85537 2650 
1901 1 -0.0474526 -0.00481391 -0.049509 0.000423 -2.5741 0.0196455 2.47992 2650 
3357 1 -0.0493878 -0.00671176 -0.0480021 0.000116 -2.33846 -0.302251 2.3834 2650 
1231 1 -0.0492388 -0.00531903 -0.0477329 0.000423 -2.48231 0.0332272 2.56421 2650 
868 1 -0.0503912 -0.0066437 -0.0469663 0.000116 -2.30575 -0.153076 2.47302 2650 
1180 1 -0.0513629 -0.00337468 -0.0459007 0.000116 -3.85392 0.614416 4.29356 2650 
3741 1 -0.0515855 -0.0185753 -0.0451872 0.000423 -2.4345 -0.241101 2.80103 2650 
1436 1 -0.0516598 -0.0136906 -0.0447483 0.000656 -2.99597 -0.145146 3.46063 2650 
1960 1 -0.0535193 -0.0293221 -0.0433675 0.000116 -2.41227 -0.0405056 3.02683 2650 
4311 1 -0.0531031 -0.0128408 -0.0433936 0.000423 -2.61738 -0.12738 3.21167 2650 
2242 1 -0.0532358 -0.0161278 -0.0432306 0.000423 -2.1683 -0.348475 2.6672 2650 
95 1 -0.0546088 -0.0070432 -0.0419868 0.000116 -2.01258 -0.137512 2.57464 2650 
1197 1 -0.0551256 -0.0216936 -0.0413051 0.000116 -2.08023 -0.477022 2.79939 2650 
816 1 -0.0550926 -0.0443819 -0.0408384 0.000423 -3.03917 -0.068244 4.10385 2650 
831 1 -0.0557483 -0.0136382 -0.0404609 0.000116 -2.09873 -0.177382 2.8792 2650 
625 1 -0.05743 -0.011469 -0.038006 0.000116 -2.02149 -0.203122 2.8004 2650 
365 1 -0.0579345 -0.0159049 -0.0366816 0.000423 -2.27934 0.0476642 3.59001 2650 
443 1 -0.059245 -0.0232252 -0.0340688 0.000656 -2.45605 -0.113727 4.20073 2650 
3376 1 -0.0141701 -0.00581095 -0.0325906 0.000116 -2.15792 -0.209413 -5.03424 2650 
1463 1 -0.0606273 -0.0320749 -0.032043 0.000423 -1.75698 -0.33469 3.2639 2650 
3314 1 -0.061088 -0.0282203 -0.0311583 0.000423 -1.87726 -0.71715 3.79175 2650 
2246 1 -0.0460206 -0.00609619 -0.0310697 0.000423 -7.00337 -0.266276 -4.7467 2650 
2245 1 -0.0622109 -0.0332398 -0.028858 0.000423 -1.79024 -0.372133 3.79829 2650 
327 1 -0.0630861 -0.00629812 -0.0278461 4.2e-05 -1.28938 -0.130909 2.96546 2650 
200 1 -0.0634233 -0.0103662 -0.0268803 0.000116 -2.16938 0.875758 5.12193 2650 
3603 1 -0.063395 -0.00641748 -0.0269476 0.000116 -1.30283 -0.120015 3.02163 2650 
1787 1 -0.0600712 -0.00956677 -0.026111 0.000423 -2.03591 -0.396669 2.58092 2650 
1380 1 -0.0649332 -0.0420326 -0.0229926 0.000116 -1.28906 0.535035 3.69309 2650 
2965 1 -0.00334005 -0.00493846 -0.0215329 4.2e-05 -0.465841 -0.346553 -2.42743 2650 
2681 1 -0.0652758 -0.0116155 -0.0210244 0.000423 -1.19196 -0.158242 3.7732 2650 
404 1 -0.0660548 -0.026117 -0.0195376 0.000116 -1.26171 0.0182322 4.26626 2650 
1619 1 -0.0663914 -0.0238091 -0.0183619 0.000116 -0.93368 -0.252647 3.3598 2650 
2779 1 -0.0660473 -0.0163332 -0.0184578 0.000423 -1.15989 -0.0672334 4.13653 2650 
71 1 -0.0127605 -0.00437333 -0.018627 0.000116 -1.76735 -0.146 -2.67383 2650 
1655 1 -0.066061 -0.0384204 -0.0175245 0.000656 -1.43081 0.364711 5.34545 2650 
1593 1 -0.066273 -0.0132005 -0.0176306 0.000423 -1.19642 -0.232082 4.40567 2650 
250 1 -0.064667 -0.00854467 -0.0172043 0.000423 -2.88337 -0.322084 2.23607 2650 
606 1 -0.000183 0.00395334 -0.016592 0.000116 0 -0.011753 0 2650 
302 1 -0.000356045 0.00480116 -0.0166548 0.000116 -0.0339633 -0.00487807 -0.0183933 2650 
2713 1 -0.000763 0.0109243 -0.016767 0.000116 0 -0.011753 0 2650 
4124 1 -0.0636167 -0.0047125 -0.0164976 0.000116 -0.989911 -0.107692 2.89363 2650 
1012 1 -0.0101602 -0.0039755 -0.0163536 0.000423 -1.46101 -0.0998541 -2.32724 2650 
2875 1 -0.00271861 -0.0022933 -0.0162285 0.000423 -0.0431898 -0.0299994 0.0160058 2650 
1991 1 -0.00387768 0.000668843 -0.0158248 0.000656 -0.0197706 -0.00214867 0.00868857 2650 
150 1 -0.00213754 0.000702413 -0.01633 0.000423 -0.00905839 0.0051051 -0.00106565 2650 
736 1 -0.003429 0.00187834 -0.016474 0.000116 0 -0.011753 0 2650 
2013 1 -0.00292053 0.00334192 -0.0162105 0.000423 0.00298908 -0.00809762 0.00112683 2650 
1698 1 -0.000620097 0.00345023 -0.0164249 0.000423 -0.0123561 0.00250859 -0.0148315 2650 
4296 1 -0.00138092 0.00452871 -0.0158483 0.000423 0.00734757 -0.0161826 -0.00468825 2650 
188 1 -0.00068 0.00549534 -0.016516 0.000116 0 -0.011753 0 2650 
2301 1 -0.004222 0.00572634 -0.016305 4.2e-05 0 -0.011753 0 2650 
1219 1 -0.00181391 0.00582106 -0.0158786 0.000656 0.0247776 0.00956829 -0.0197628 2650 
3616 1 -0.000938 0.00629034 -0.016074 4.2e-05 0 -0.011753 0 2650 
3789 1 -0.00074021 0.00606857 -0.0161355 0.000116 0.030547 0.0102001 0.00865191 2650 
3546 1 -0.00120708 0.00669358 -0.0163146 0.000423 0.0217346 0.00883054 0.00600288 2650 
508 1 -0.00488182 0.00751344 -0.0160661 0.000116 -0.0781642 0.00970087 0.0217657 2650 
3934 1 -0.001977 0.00871534 -0.016218 0.000116 0 -0.011753 0 2650 
2467 1 -0.00320215 0.0237574 -0.016042 0.000423 0.022189 0.122131 -0.0980488 2650 
2690 1 -0.00187395 -0.00325543 -0.0155623 0.000423 -0.0109513 -0.0485284 -0.0149212 2650 
3904 1 -0.00405615 -0.0029392 -0.0154286 0.000116 -0.00761556 -0.0338408 0.0525297 2650 
93 1 -0.00747368 -0.00228474 -0.0150175 0.000116 -0.0674932 -0.0307806 0.026204 2650 
4116 1 -0.00585436 -0.00215277 -0.0151341 0.000116 -0.100858 -0.038207 0.0748494 2650 
1640 1 -0.00060206 -0.00163122 -0.015365 4.2e-05 0.028899 -0.0133034 -0.0332578 2650 
2127 1 -0.00607164 -0.000869656 -0.015303 0.000423 -0.149062 0.0132826 0.0569717 2650 
3733 1 -0.00486897 0.000104851 -0.0150698 0.000656 -0.024164 0.0138988 0.0212093 2650 
676 1 -0.00131042 0.00206695 -0.015732 0.000423 -0.0285827 0.0077176 0.0232959 2650 
2313 1 -0.0049471 0.00301507 -0.0152958 0.000656 -0.00048439 0.0541327 0.00642736 2650 
1679 1 -0.0036199 0.00308416 -0.01573 0.000423 -0.000267589 -0.00703629 -0.00433961 2650 
1618 1 -0.00649037 0.00349727 -0.0151879 0.000116 -0.0316941 0.0615295 0.00665882 2650 
1620 1 -0.0067094 0.0045791 -0.0153276 0.000116 0.0529387 0.0514306 -0.00503745 2650 
2399 1 -0.002418 0.00416734 -0.015541 0.000116 0 -0.011753 0 2650 
3121 1 -0.00515067 0.00503044 -0.0155559 0.000423 0.0277737 -0.000599869 -0.0089826 2650 
234 1 -0.00343715 0.00493027 -0.0154088 0.000423 0.0351287 -0.0167305 0.0264562 2650 
3147 1 -0.000784929 0.00592445 -0.0153398 0.000116 0.0559179 -0.028746 -0.0359399 2650 
2969 1 -0.00129007 0.00686888 -0.0151861 0.000656 0.00356137 -0.00650063 0.00633515 2650 
978 1 -0.005372 0.00741334 -0.015286 0.000116 0 -0.011753 0 2650 
2596 1 -0.00656885 0.00790067 -0.0153472 0.000116 -0.0442582 -0.0431064 0.0384975 2650 
86 1 -0.002064 0.00997134 -0.015055 0.000116 0 -0.011753 0 2650 
3177 1 -0.001068 0.00977134 -0.015412 4.2e-05 0 -0.011753 0 2650 
3830 1 -0.006879 0.0102673 -0.015411 4.2e-05 0 -0.011753 0 2650 
938 1 -0.000869 0.0111773 -0.015416 0.000116 0 -0.011753 0 2650 
1979 1 -0.00431636 0.0171853 -0.0152254 4.2e-05 -0.060479 0.115177 0.0648972 2650 
2209 1 -0.00465192 0.0253827 -0.0155956 0.000656 0.201035 0.0844023 -0.0555876 2650 
2701 1 -0.000513749 0.0297544 -0.0156753 0.000116 0.0331549 0.247236 -0.00676049 2650 
2206 1 -0.00202072 0.0504894 -0.015033 0.000656 0.225245 -0.271565 0.0940273 2650 
3502 1 -0.001236 -0.00292366 -0.014816 4.2e-05 0 -0.011753 0 2650 
3196 1 -0.00613714 -0.0018847 -0.0145946 0.000423 -0.0145835 -0.0356458 0.0123331 2650 
330 1 -0.00341787 -0.0021167 -0.0146844 4.2e-05 -0.0696064 -0.0147686 0.0345761 2650 
2413 1 -0.00434992 -0.00112395 -0.0142733 4.2e-05 -0.0826713 -0.0311639 0.0536157 2650 
2645 1 -0.00356923 -0.000600788 -0.0145495 0.000656 -0.0527729 -0.00346266 0.0530189 2650 
3441 1 -0.00150705 -1.3211e-05 -0.0143493 0.000423 0.0511961 0.0224295 0.00157087 2650 
1053 1 -0.007469 0.000325342 -0.014946 0.000116 0 -0.011753 0 2650 
2332 1 -0.00352829 0.000675551 -0.0147843 0.000423 -0.0109 -0.00809842 0.00848611 2650 
2827 1 -0.00370614 0.000353923 -0.0143709 0.000116 -0.0201753 -0.0226203 0.0017234 2650 
3637 1 -0.00315833 0.00126578 -0.0142669 0.000423 -0.00927015 0.0142513 -0.0137177 2650 
3239 1 -0.00233159 0.00105401 -0.0148257 0.000116 -0.00859694 0.0134975 -0.018679 2650 
2783 1 -0.00123654 0.00112808 -0.0142822 0.000423 0.0360827 0.036432 -0.00772183 2650 
220 1 -0.003649 0.00323034 -0.014897 4.2e-05 0 -0.011753 0 2650 
3322 1 -0.00449406 0.00403163 -0.0146338 0.000423 0.00353739 -0.017928 0.0139954 2650 
1584 1 -0.00172691 0.00581755 -0.0146821 0.000423 0.0363999 -0.00119645 -0.00933527 2650 
3564 1 -0.000147 0.00595634 -0.014738 0.000423 0 -0.011753 0 2650 
2438 1 -0.00567215 0.00677978 -0.014694 0.000423 -0.00278545 -0.000108858 -0.00379545 2650 
3365 1 -0.002315 0.00659334 -0.014552 0.000116 0 -0.011753 0 2650 
4190 1 -0.00768798 0.00856055 -0.0146289 0.000423 -0.009489 7.8582e-05 0.00632979 2650 
3515 1 -0.0066092 0.0084871 -0.0146403 0.000656 -0.0097631 -0.011449 0.0111585 2650 
1986 1 -0.0034471 0.00878811 -0.0145965 0.000656 0.00762539 0.0149956 0.0116892 2650 
1228 1 -0.00135058 0.0100439 -0.0149706 0.000423 -0.00123313 -0.0118667 -0.000623591 2650 
371 1 -0.00050735 0.0103914 -0.0148501 0.000423 0.000724313 -0.00601752 -0.0061741 2650 
3669 1 -0.00040993 0.0111689 -0.0143934 0.000423 0.00220454 -0.00743356 -0.00383523 2650 
3632 1 -0.00818138 0.0127741 -0.0143148 0.000423 -0.0240755 -0.00064867 0.0133566 2650 
3455 1 -0.00252665 0.0157679 -0.0148315 0.000423 0.0108365 0.0310717 0.0944532 2650 
1254 1 -0.00488859 0.0231831 -0.014634 0.000423 0.138718 -0.0210939 0.0394833 2650 
1357 1 -0.00716256 0.0311452 -0.014554 0.000423 0.0624779 0.287902 -0.0352894 2650 
1347 1 -0.00808195 0.0390581 -0.0143698 0.000423 -0.122682 0.201852 0.0945749 2650 
3633 1 -0.0097821 -0.00379746 -0.0136496 0.000423 -0.316631 -0.228278 -0.408744 2650 
955 1 -0.00875083 -0.00246845 -0.0141443 0.000116 -0.0393459 -0.0406554 0.0762402 2650 
1808 1 -0.0055701 -0.00147295 -0.0141046 0.000423 -0.0837398 0.00669739 0.0863213 2650 
388 1 -0.00855026 -0.000353609 -0.0134961 0.000116 0.0212466 0.0335067 0.0250458 2650 
4126 1 -0.00300489 -0.000434492 -0.0135352 0.000116 -0.0261531 0.0084042 0.00402279 2650 
3778 1 -0.00404158 3.50988e-05 -0.013784 0.000423 -0.0441284 0.0265152 0.0540744 2650 
541 1 -0.00468865 6.98423e-05 -0.014109 4.2e-05 -0.0428204 0.0143713 0.0426846 2650 
2817 1 -0.00340389 0.00033076 -0.0139688 0.000116 0.0169543 0.0239719 -0.0593677 2650 
450 1 -0.00715221 0.00240645 -0.0136975 0.000656 0.0113486 0.0469175 0.00740751 2650 
222 1 -0.00164773 0.00275596 -0.0141939 0.000656 -0.000929496 -0.0489405 -0.0286938 2650 
2219 1 -0.00669484 0.00350342 -0.0134331 0.000423 0.0573797 0.046564 0.0166916 2650 
3645 1 -0.00350971 0.00364809 -0.0136468 0.000423 -0.0384881 -0.00405051 0.0134405 2650 
3587 1 -0.0060066 0.00408471 -0.0138584 0.000116 0.00461134 0.0023037 -0.00278329 2650 
2283 1 -6.26692e-06 0.00458704 -0.0140325 0.000116 -0.0318858 -0.01081 -0.0228231 2650 
104 1 -0.00253551 0.00489094 -0.0139401 4.2e-05 -0.00674979 0.0150481 0.0116551 2650 
3380 1 -0.00215076 0.00515026 -0.0140907 0.000116 -0.00133046 -0.0120531 0.0302183 2650 
4165 1 -0.0052742 0.00597287 -0.0138697 0.000656 0.00463225 0.00751739 0.0156563 2650 
2322 1 -0.00762171 0.00788842 -0.0137861 0.000656 -0.00731325 -0.00774178 0.000492004 2650 
1288 1 -0.002467 0.00789634 -0.014044 0.000116 0 -0.011753 0 2650 
2222 1 -0.000169 0.00852534 -0.014111 0.000423 0 -0.011753 0 2650 
581 1 -0.005568 0.00941734 -0.014167 0.000423 0 -0.011753 0 2650 
2483 1 -0.0092291 0.0107479 -0.0138872 0.000116 0.00258646 -0.0218162 0.0129531 2650 
1476 1 -0.006941 0.0106963 -0.013435 0.000423 0 -0.011753 0 2650 
1409 1 -0.00044 0.0116763 -0.013868 0.000116 0 -0.011753 0 2650 
4257 1 -0.00930595 0.0124892 -0.0138488 0.000116 0.0616028 0.00285205 -0.0504011 2650 
675 1 -0.00418842 0.0167605 -0.0139024 0.000423 -0.0171714 0.0807922 0.0289201 2650 
3932 1 -0.0058464 0.0176751 -0.0140103 0.000116 -0.0403354 0.0602269 -0.135114 2650 
3216 1 -0.0028715 0.0182449 -0.0136791 0.000423 -0.0601615 0.128493 -0.0913681 2650 
4267 1 -0.00472601 0.0265457 -0.0136377 4.2e-05 0.0268407 0.137161 0.0861779 2650 
2317 1 -0.0671327 -0.0363556 -0.0127619 0.000656 -0.9901 0.121871 6.12236 2650 
4097 1 -0.00961371 -0.00254419 -0.0132079 0.000423 0.0466953 0.00407814 0.0102145 2650 
3200 1 -0.00701838 0.000352546 -0.0128567 0.000423 0.0205513 0.040167 0.0362369 2650 
623 1 -0.0066959 0.00078681 -0.0129217 0.000116 -0.0418007 -0.0241435 -0.0222958 2650 
3551 1 -0.005293 3.73422e-05 -0.013215 0.000423 0 -0.011753 0 2650 
3201 1 -0.00595273 0.00100099 -0.0126841 0.000423 -0.0357335 -0.0343151 -0.000191327 2650 
248 1 -0.00636247 0.00171254 -0.0132035 0.000423 -0.0267192 -0.0283469 0.0533411 2650 
2525 1 -0.004063 0.00212334 -0.013231 4.2e-05 0 -0.011753 0 2650 
1595 1 -0.00747908 0.00278994 -0.0127396 0.000423 -0.0081111 0.00198047 0.0261702 2650 
2619 1 -0.005851 0.00293934 -0.012854 0.000116 0 -0.011753 0 2650 
2922 1 -0.0040511 0.00255691 -0.0128697 0.000116 -0.0492521 -0.0166623 -0.0574868 2650 
1125 1 -0.00333349 0.00243713 -0.0130387 0.000423 -0.0447254 0.0166037 0.0212545 2650 
3880 1 -0.010277 0.00385534 -0.012913 0.000423 0 -0.011753 0 2650 
2609 1 -0.00886 0.00366334 -0.013248 0.000116 0 -0.011753 0 2650 
3917 1 -0.003984 0.00442434 -0.012703 0.000116 0 -0.011753 0 2650 
2059 1 -0.003583 0.00463334 -0.012756 0.000116 0 -0.011753 0 2650 
3798 1 -0.000981792 0.00464855 -0.0131592 0.000116 -0.0483102 0.213285 0.0286816 2650 
2918 1 -0.00757 0.00501434 -0.012948 0.000116 0 -0.011753 0 2650 
4078 1 -0.00782353 0.00687563 -0.0127937 0.000423 -0.0196946 -0.00953845 0.00130892 2650 
1427 1 -0.002948 0.00696434 -0.013376 4.2e-05 0 -0.011753 0 2650 
3259 1 -0.00821228 0.00810302 -0.0133118 0.000116 -0.00597746 -0.00895275 0.0028953 2650 
1795 1 -0.008775 0.00896334 -0.012959 0.000423 0 -0.011753 0 2650 
1769 1 -0.00537044 0.00881848 -0.013073 0.000656 -0.011011 -0.0134467 0.00306932 2650 
192 1 -0.00150789 0.00915509 -0.0132059 0.000116 0.052188 -0.0401332 -0.079726 2650 
205 1 -0.000744 0.00968034 -0.01334 0.000116 0 -0.011753 0 2650 
1775 1 -0.00822354 0.0123984 -0.0130223 0.000423 -7.29146e-05 -0.011186 -0.000346901 2650 
3644 1 -0.000733 0.0123513 -0.013392 0.000423 0 -0.011753 0 2650 
2109 1 -0.00436885 0.0176585 -0.0132238 0.000423 -0.0277695 0.107912 0.0279852 2650 
819 1 -0.00601281 0.0316802 -0.0131842 0.000423 0.076373 0.150736 0.0329282 2650 
689 1 -0.0675204 -0.0374672 -0.0119821 0.000423 -0.85334 -0.428061 4.63315 2650 
4150 1 -0.0678497 -0.0112667 -0.0118823 0.000116 -0.325297 -0.320068 4.07832 2650 
2166 1 -0.00939818 -0.00335088 -0.0122205 0.000116 -0.125494 -0.0859021 -0.198353 2650 
1393 1 -0.0111813 -0.00250887 -0.0123763 0.000116 -0.0365642 -0.00979486 0.0367338 2650 
3960 1 -0.00872149 -0.00238702 -0.012384 0.000423 -0.0011096 -0.0310235 -0.0206256 2650 
545 1 -0.002328 -0.00185166 -0.012432 4.2e-05 0 -0.011753 0 2650 
3295 1 -0.00933453 -0.00100522 -0.0126232 0.000656 -0.0525799 0.0428321 0.0901864 2650 
2819 1 -0.007468 -0.00131766 -0.012046 0.000116 0 -0.011753 0 2650 
2468 1 -0.003167 -0.00147866 -0.012131 0.000423 0 -0.011753 0 2650 
1763 1 -0.001143 -0.00119066 -0.012442 0.000656 0 -0.011753 0 2650 
3303 1 -0.0106117 -0.000269678 -0.0122353 0.000656 -0.0221167 0.0277524 0.0366297 2650 
509 1 -0.00908651 -0.000336248 -0.0121246 0.000116 0.112775 -0.0283237 -0.0229232 2650 
3191 1 -0.00630852 -0.00057286 -0.0121688 0.000656 -0.00833246 0.0061838 -0.01197 2650 
1422 1 -0.003881 0.000655342 -0.012349 4.2e-05 0 -0.011753 0 2650 
3589 1 -0.0110743 0.00116634 -0.0124381 0.000116 0.095517 0.0667736 -0.158902 2650 
2939 1 -0.00928771 0.00113943 -0.0121153 0.000116 0.0323027 0.120106 -0.00581553 2650 
1799 1 -0.00323495 0.0014681 -0.0120597 0.000423 7.10678e-05 -0.0118308 4.63239e-05 2650 
3956 1 -0.00899938 0.00226636 -0.0122862 0.000656 -0.000838464 -0.0112695 -0.000254236 2650 
3389 1 -0.010415 0.00292134 -0.012026 0.000116 0 -0.011753 0 2650 
2957 1 -0.00290902 0.00286334 -0.0122475 4.2e-05 0.0205169 0.0248349 -0.000218849 2650 
1093 1 -0.00561185 0.00368341 -0.011947 4.2e-05 -0.0377884 0.0174852 0.109535 2650 
2194 1 -0.00258625 0.00458774 -0.0126106 4.2e-05 0.00491046 0.00111596 0.00228026 2650 
411 1 -0.0099786 0.00494499 -0.0120853 0.000116 -0.00787832 -0.00657823 -8.20909e-05 2650 
2512 1 -0.00985147 0.00547293 -0.0118485 0.000116 0.002514 -0.0160812 -0.0313025 2650 
3826 1 -0.009208 0.00481634 -0.012552 0.000116 0 -0.011753 0 2650 
1261 1 -0.007462 0.00547334 -0.012403 0.000423 0 -0.011753 0 2650 
3316 1 -0.008979 0.00556934 -0.012376 0.000423 0 -0.011753 0 2650 
3362 1 -0.002672 0.00558234 -0.012199 0.000116 0 -0.011753 0 2650 
2547 1 -0.0105233 0.00703167 -0.0125895 0.000423 -0.0187488 0.0289195 0.0215408 2650 
3446 1 -0.002592 0.00657634 -0.012627 0.000423 0 -0.011753 0 2650 
3030 1 -0.001189 0.00707934 -0.012596 0.000116 0 -0.011753 0 2650 
2913 1 -0.0058221 0.0075761 -0.0123896 0.000116 -0.028239 -0.0119827 -0.0130286 2650 
191 1 -0.011348 0.00840034 -0.012254 0.000116 0 -0.011753 0 2650 
4318 1 -0.00827026 0.00811437 -0.0125074 0.000423 -0.00589465 -0.00768269 0.00318441 2650 
713 1 -0.00651302 0.0080112 -0.0123249 0.000423 -0.0229952 -0.0104665 0.0222494 2650 
1495 1 -0.004483 0.00854734 -0.012591 0.000116 0 -0.011753 0 2650 
3847 1 -0.00973401 0.00900722 -0.0124044 0.000656 6.67707e-05 -0.0116743 2.1441e-05 2650 
3173 1 -0.004958 0.00920834 -0.012321 4.2e-05 0 -0.011753 0 2650 
949 1 -0.00541642 0.00926847 -0.0123865 0.000116 -0.0176518 0.0277962 -0.00593252 2650 
1617 1 -0.00460086 0.00913758 -0.0125355 0.000116 -0.0286454 0.00715769 -0.0828343 2650 
3684 1 -0.00455244 0.00942482 -0.0119056 0.000116 0.00413104 -0.0230128 -0.00941473 2650 
2630 1 -0.001036 0.00941634 -0.012074 4.2e-05 0 -0.011753 0 2650 
4002 1 -0.000443 0.00924034 -0.01223 0.000116 0 -0.011753 0 2650 
65 1 -0.011593 0.010259 -0.012113 0.000116 -0.00839689 -0.0185298 0.0531382 2650 
1250 1 -0.007399 0.00972634 -0.012448 0.000423 0 -0.011753 0 2650 
4314 1 -0.0104574 0.0103624 -0.0118472 0.000423 -0.0535146 -0.0274014 -0.00338754 2650 
233 1 -0.00481116 0.0104738 -0.0123348 0.000423 0.000669097 -0.00994222 -0.0330396 2650 
1423 1 -0.00145 0.0108963 -0.012526 4.2e-05 0 -0.011753 0 2650 
963 1 -0.00297138 0.0114349 -0.0125837 0.000116 -0.0512099 -0.0542754 -0.0325787 2650 
2205 1 -0.00500614 0.013265 -0.011875 0.000656 -0.00241752 0.00375043 0.00610124 2650 
1143 1 -0.00122882 0.013821 -0.0121639 0.000423 0.0070315 0.0110531 -0.00616027 2650 
884 1 -0.00680302 0.0143405 -0.012306 0.000656 -0.0213431 0.0225291 0.0346991 2650 
3205 1 -0.0015347 0.0273137 -0.0118796 0.000423 -0.0474712 0.144601 0.126977 2650 
3390 1 -0.0678902 -0.0146949 -0.0116125 0.000116 -0.658534 -0.143622 3.6231 2650 
2072 1 -0.009308 -0.00327866 -0.011721 0.000116 0 -0.011753 0 2650 
3679 1 -0.012092 -0.00314066 -0.011604 0.000116 0 -0.011753 0 2650 
3505 1 -0.006952 -0.00218266 -0.011235 4.2e-05 0 -0.011753 0 2650 
1022 1 -0.002093 -0.00231266 -0.011454 0.000423 0 -0.011753 0 2650 
440 1 -0.00061 -0.000880658 -0.011485 4.2e-05 0 -0.011753 0 2650 
950 1 -0.00994882 -0.000452961 -0.0114193 0.000116 0.00737636 0.000157986 0.0400931 2650 
369 1 -0.0101862 0.000736084 -0.0114249 0.000423 0.043274 0.0567536 0.0397147 2650 
4215 1 -0.0111821 0.00123174 -0.011521 0.000423 0.000531233 -0.0108162 0.000832329 2650 
2579 1 -0.00873435 0.00151981 -0.0111417 0.000423 -0.000311164 -0.0069809 0.00202215 2650 
3643 1 -0.00681463 0.00100156 -0.0115004 0.000423 -0.0386014 -0.00662447 0.00484329 2650 
1468 1 -0.00318586 0.000815888 -0.0114784 0.000423 -0.0197001 -0.0470204 -0.0326717 2650 
3535 1 -9.9e-05 0.00153134 -0.011488 0.000423 0 -0.011753 0 2650 
2279 1 -0.011345 0.00179134 -0.01145 0.000116 0 -0.011753 0 2650 
3894 1 -0.005583 0.00229034 -0.011098 0.000116 0 -0.011753 0 2650 
1063 1 -0.009531 0.00284534 -0.011683 0.000116 0 -0.011753 0 2650 
3383 1 -0.011681 0.00384034 -0.011229 0.000116 0 -0.011753 0 2650 
1657 1 -0.00961398 0.00414611 -0.0112914 0.000656 -0.0116375 -0.0115716 0.0121112 2650 
2294 1 -0.004894 0.00452634 -0.011565 0.000116 0 -0.011753 0 2650 
1569 1 -0.00356241 0.00418883 -0.011682 0.000423 -0.0101167 -0.00131963 0.0156048 2650 
1171 1 -0.0081876 0.00514382 -0.0113895 0.000116 0.0150347 -0.00434742 -0.0519214 2650 
878 1 -0.003908 0.00500934 -0.011202 4.2e-05 0 -0.011753 0 2650 
708 1 -0.0025962 0.00486505 -0.0116427 0.000423 -0.0031746 -0.00580761 -0.0104884 2650 
1215 1 -0.0108966 0.00599919 -0.0112195 0.000656 -0.0157163 -0.0116904 0.0020601 2650 
1822 1 -0.008034 0.00557934 -0.011166 0.000116 0 -0.011753 0 2650 
1758 1 -0.00201 0.00584034 -0.01144 4.2e-05 0 -0.011753 0 2650 
4027 1 -0.003218 0.00697134 -0.011075 0.000116 0 -0.011753 0 2650 
2409 1 -0.002586 0.00691034 -0.011527 4.2e-05 0 -0.011753 0 2650 
2798 1 -0.008755 0.00801034 -0.01131 0.000423 0 -0.011753 0 2650 
3950 1 -0.00461354 0.00811006 -0.0118417 0.000656 -0.0480891 -0.0570868 -0.0835625 2650 
958 1 -0.00352406 0.0100207 -0.0116724 0.000116 0.0401715 0.0303898 0.081686 2650 
4179 1 -0.00646668 0.0102704 -0.0113749 0.000423 -0.019419 -0.0184876 -0.0181928 2650 
3106 1 -0.00489563 0.0104666 -0.0114265 0.000423 -0.042507 0.0242048 -0.0146805 2650 
1827 1 -0.00307129 0.0106704 -0.0114587 0.000116 -0.0556457 -0.0263815 -0.0392498 2650 
70 1 -0.0102673 0.0115029 -0.0114295 0.000116 0.00881709 0.0274246 0.0240282 2650 
3145 1 -0.006381 0.0113623 -0.011273 0.000116 0 -0.011753 0 2650 
85 1 -0.00675248 0.0114449 -0.0113688 0.000116 0.154819 -0.544812 0.142183 2650 
3007 1 -0.000279033 0.01131 -0.0112601 0.000423 -0.0178471 0.0138182 -0.0606524 2650 
1578 1 -0.0104791 0.0125893 -0.0110763 0.000423 0.00763503 -0.000391995 0.0342555 2650 
1802 1 -0.00431249 0.0123629 -0.011373 0.000423 -0.00390046 0.009624 -0.0151961 2650 
976 1 -0.005828 0.0127393 -0.011785 0.000116 0 -0.011753 0 2650 
568 1 -0.00510875 0.0147565 -0.0113625 0.000423 0.0183062 0.0263973 -0.10881 2650 
728 1 -0.00240252 0.0204006 -0.0118025 0.000116 0.0277452 0.106546 0.043675 2650 
1900 1 -0.00744359 0.0305001 -0.0117623 0.000423 0.00650864 0.175596 0.0646267 2650 
869 1 -0.00174312 0.0413089 -0.0114929 0.000116 0.212266 0.254364 -0.0250464 2650 
4334 1 -0.0680359 -0.0201184 -0.0107751 0.000116 -0.567379 -0.134068 3.5362 2650 
3817 1 -0.0681003 -0.0172565 -0.0103471 0.000116 -0.548854 -0.0890666 3.70419 2650 
3426 1 -0.0010753 -0.00319968 -0.0104761 0.000423 -0.00109119 -0.0119118 0.00171421 2650 
4373 1 -0.004239 -0.00291666 -0.010869 4.2e-05 0 -0.011753 0 2650 
15 1 -0.00186627 -0.00255021 -0.010437 0.000423 0.00273433 -0.0143624 -0.00318551 2650 