ITEM: TIMESTEP
550698
ITEM: NUMBER OF ATOMS
4382
ITEM: BOX BOUNDS ff ff ff
-0.15 0.15
-0.15 0.06
-0.15 0.15
ITEM: ATOMS id type x y z radius vx vy vz density 
1845 1 -0.0235368 -0.051023 -0.0647338 0.000116 -2.23385 -2.4015 0.73852 2650 
3810 1 -0.0536086 -0.0547442 -0.0432568 0.000116 -2.31952 0.428305 2.93 2650 
2317 1 -0.00952367 -0.016503 -0.0676789 0.000656 -3.53772 -0.810118 0.512544 2650 
208 1 -0.027482 -0.00782172 -0.0493972 0.000116 -4.26385 -0.4067 -7.83092 2650 
843 1 -0.0280423 -0.00975009 -0.0399791 0.000116 -4.43113 -0.653475 -5.93653 2650 
3143 1 -0.0187778 -0.0338793 -0.0336717 0.000116 -2.93885 -2.12827 -5.34981 2650 
4353 1 -0.00741619 -0.00706694 -0.024029 0.000116 -1.2619 -0.471371 -3.73582 2650 
3330 1 -0.0107443 -0.00840808 -0.0219128 0.000423 -1.65631 -0.591447 -2.97861 2650 
734 1 -0.00904464 -0.00835587 -0.0207846 0.000116 -1.40682 -0.544889 -2.8531 2650 
4187 1 -0.00272048 -0.00579357 -0.0180605 0.000423 -0.345709 -0.702338 -1.32678 2650 
606 1 -0.000183 0.00517433 -0.016592 0.000116 0 -0.011753 0 2650 
3503 1 -0.000239121 0.0113505 -0.0166242 4.2e-05 0.0522496 -0.102958 -0.0636393 2650 
2713 1 -0.000763 0.0121453 -0.016767 0.000116 0 -0.011753 0 2650 
1957 1 -0.00253196 -0.0034042 -0.0159534 0.000116 -0.231024 -0.0375643 -1.45564 2650 
691 1 -0.000944985 -0.00306864 -0.0157927 0.000423 -0.0520749 -0.0559449 -0.00679066 2650 
3329 1 -1.25962e-05 -0.00292974 -0.0160731 0.000423 -0.0356524 -0.106529 0.158888 2650 
4116 1 -0.004072 -0.000482665 -0.016193 0.000116 0 -0.011753 0 2650 
93 1 -0.00354 -7.1665e-05 -0.016299 0.000116 0 -0.011753 0 2650 
508 1 -0.00174331 0.000762235 -0.0159151 0.000116 0.294847 0.371723 -0.00855989 2650 
1991 1 -0.002768 0.00150733 -0.01599 0.000656 0 -0.011753 0 2650 
736 1 -0.003429 0.00309933 -0.016474 0.000116 0 -0.011753 0 2650 
3645 1 -0.00125867 0.00347451 -0.0161294 0.000423 -0.018024 0.00762956 0.0274716 2650 
2013 1 -0.003166 0.00427833 -0.016002 0.000423 0 -0.011753 0 2650 
3546 1 -0.002797 0.00623633 -0.016252 0.000423 0 -0.011753 0 2650 
2301 1 -0.004222 0.00694733 -0.016305 4.2e-05 0 -0.011753 0 2650 
188 1 -0.00068 0.00671633 -0.016516 0.000116 0 -0.011753 0 2650 
3616 1 -0.000938 0.00751133 -0.016074 4.2e-05 0 -0.011753 0 2650 
728 1 -0.00248663 0.00808379 -0.0160871 0.000116 -0.0974289 0.166407 -0.102141 2650 
3934 1 -0.001977 0.00993633 -0.016218 0.000116 0 -0.011753 0 2650 
1357 1 -0.00230646 0.0112613 -0.0161682 0.000423 -0.179373 0.15238 -0.0359714 2650 
4038 1 -0.00040612 -0.00265237 -0.0155406 0.000116 0.158869 -0.0914693 0.021866 2650 
3441 1 -0.005522 -0.00214867 -0.01502 0.000423 0 -0.011753 0 2650 
330 1 -0.001698 -0.000807665 -0.015557 4.2e-05 0 -0.011753 0 2650 
3733 1 -0.00238749 -0.000773723 -0.0152444 0.000656 -0.00231757 -0.013879 0.00177661 2650 
2965 1 -2.2e-05 -0.000501665 -0.015341 4.2e-05 0 -0.011753 0 2650 
2547 1 -0.00682768 0.00344872 -0.0150345 0.000423 -0.0835247 0.0612723 -0.0363848 2650 
1679 1 -0.00365513 0.00370914 -0.0153708 0.000423 0.00305589 -0.00234253 -0.00398464 2650 
1569 1 -0.00157984 0.00374992 -0.015392 0.000423 -0.0216339 0.00639937 0.0413798 2650 
1059 1 -0.00644661 0.004371 -0.0151836 0.000116 -0.124924 0.0251775 -0.17899 2650 
3147 1 -0.001711 0.00429133 -0.015157 0.000116 0 -0.011753 0 2650 
2399 1 -0.002418 0.00538833 -0.015541 0.000116 0 -0.011753 0 2650 
4296 1 -0.00156555 0.00597102 -0.015523 0.000423 -0.000356005 -0.0132873 -0.00240934 2650 
3789 1 -0.00274821 0.00692324 -0.0151939 0.000116 0.0751661 -0.205537 -0.0399781 2650 
1986 1 -0.00415432 0.00719254 -0.0155578 0.000656 -0.00578738 0.0209481 -0.0282702 2650 
978 1 -0.005372 0.00863433 -0.015286 0.000116 0 -0.011753 0 2650 
2969 1 -0.001381 0.00795833 -0.015354 0.000656 0 -0.011753 0 2650 
2250 1 -0.00164532 0.0100187 -0.0153385 0.000423 -0.155375 0.0227889 0.0380727 2650 
3177 1 -0.001068 0.0109923 -0.015412 4.2e-05 0 -0.011753 0 2650 
3830 1 -0.006879 0.0114883 -0.015411 4.2e-05 0 -0.011753 0 2650 
884 1 -0.00430195 0.0118177 -0.0151962 0.000656 -0.0378318 0.0387573 -0.0430688 2650 
86 1 -0.002064 0.0111923 -0.015055 0.000116 0 -0.011753 0 2650 
938 1 -0.000869 0.0123983 -0.015416 0.000116 0 -0.011753 0 2650 
3632 1 -0.006134 0.0131143 -0.015144 0.000423 0 -0.011753 0 2650 
821 1 -0.00750574 -0.00411016 -0.0146091 0.000423 -0.792625 -0.19605 -1.54001 2650 
2806 1 -0.00314514 -0.00395369 -0.0149258 0.000116 -0.385455 -0.269245 -0.50029 2650 
2256 1 -0.001753 -0.00269767 -0.014775 0.000116 0 -0.011753 0 2650 
747 1 -0.001416 -0.00267767 -0.014317 0.000116 0 -0.011753 0 2650 
3156 1 -0.000771181 -0.00256864 -0.014237 0.000116 0.1015 -0.252562 0.115309 2650 
3502 1 -0.001236 -0.00170267 -0.014816 4.2e-05 0 -0.011753 0 2650 
1640 1 -0.001358 -0.000369665 -0.014495 4.2e-05 0 -0.011753 0 2650 
2313 1 -0.005044 0.000474335 -0.014923 0.000656 0 -0.011753 0 2650 
2413 1 -0.003433 0.000312335 -0.014868 4.2e-05 0 -0.011753 0 2650 
1053 1 -0.007469 0.00154633 -0.014946 0.000116 0 -0.011753 0 2650 
2332 1 -0.003268 0.00183733 -0.014853 0.000423 0 -0.011753 0 2650 
3239 1 -0.002155 0.00175633 -0.014442 0.000116 0 -0.011753 0 2650 
1589 1 -0.00783851 0.00345105 -0.0144001 0.000423 -0.0647442 0.0335493 0.0762813 2650 
2701 1 -0.00395814 0.0040696 -0.014973 0.000116 0.0331549 0.247236 -0.00676049 2650 
220 1 -0.003649 0.00445133 -0.014897 4.2e-05 0 -0.011753 0 2650 
104 1 -0.00218 0.00470033 -0.014554 4.2e-05 0 -0.011753 0 2650 
3121 1 -0.007407 0.00527033 -0.014654 0.000423 0 -0.011753 0 2650 
4165 1 -0.00559862 0.0048929 -0.0148829 0.000656 -0.00960923 0.0142793 -0.0281222 2650 
3322 1 -0.0041507 0.00592561 -0.0149715 0.000423 -0.0209456 -0.0191109 -0.033031 2650 
2438 1 -0.005612 0.00774933 -0.014612 0.000423 0 -0.011753 0 2650 
2763 1 -0.00283368 0.00741874 -0.0147135 0.000423 0.119869 -0.206142 0.149591 2650 
3365 1 -0.002315 0.00781433 -0.014552 0.000116 0 -0.011753 0 2650 
3564 1 -0.000147 0.00717733 -0.014738 0.000423 0 -0.011753 0 2650 
713 1 -0.00407062 0.00821133 -0.0146456 0.000423 -0.0333908 0.0368981 0.0147375 2650 
4190 1 -0.007319 0.00948433 -0.014559 0.000423 0 -0.011753 0 2650 
3515 1 -0.00473869 0.00981925 -0.0147635 0.000656 -0.002104 -0.0107719 -0.00140178 2650 
1228 1 -0.001302 0.0112693 -0.014946 0.000423 0 -0.011753 0 2650 
371 1 -0.000507 0.0110673 -0.014221 0.000423 0 -0.011753 0 2650 
3294 1 -0.00502152 0.0198633 -0.0148041 0.000656 -0.153178 0.532354 -0.151969 2650 
3229 1 -0.006614 -0.00257967 -0.01374 0.000423 0 -0.011753 0 2650 
327 1 -0.003849 -0.00245967 -0.013874 4.2e-05 0 -0.011753 0 2650 
1943 1 -0.002925 -0.00315167 -0.01374 0.000116 0 -0.011753 0 2650 
2705 1 -0.001432 -0.00264067 -0.013674 0.000116 0 -0.011753 0 2650 
2939 1 -0.008405 -0.00165667 -0.013483 0.000116 0 -0.011753 0 2650 
3622 1 -0.005521 -0.00181567 -0.013445 0.000656 0 -0.011753 0 2650 
3295 1 -0.00190867 -0.00168668 -0.0139356 0.000656 -0.0326807 -0.0261897 -0.0816896 2650 
1393 1 -0.009523 -0.00135267 -0.013534 0.000116 0 -0.011753 0 2650 
3303 1 -0.00657189 -0.000169314 -0.0141301 0.000656 -0.0119966 -0.0726635 -0.0251966 2650 
2783 1 -0.003328 -0.000317665 -0.013758 0.000423 0 -0.011753 0 2650 
4126 1 -0.001667 -0.000244665 -0.013741 0.000116 0 -0.011753 0 2650 
249 1 -0.00852438 0.00043518 -0.0134362 0.000423 -0.254763 -0.0912382 0.226262 2650 
3778 1 -0.003893 0.00119933 -0.013816 0.000423 0 -0.011753 0 2650 
1620 1 -0.008456 0.00321833 -0.013856 0.000116 0 -0.011753 0 2650 
3587 1 -0.006279 0.00447533 -0.013694 0.000116 0 -0.011753 0 2650 
1219 1 -0.00497215 0.00411633 -0.0139603 0.000656 0.035204 0.0225104 -0.0281999 2650 
2485 1 -0.006627 0.00482233 -0.014195 0.000116 0 -0.011753 0 2650 
1327 1 -0.00654504 0.00665909 -0.0138046 0.000656 -0.243855 0.0891654 -0.0259286 2650 
3035 1 -0.00875 0.00742133 -0.013893 0.000116 0 -0.011753 0 2650 
2777 1 -0.00439092 0.00758745 -0.0139142 0.000423 -0.0600041 0.0325706 0.0604979 2650 
1288 1 -0.002467 0.00911733 -0.014044 0.000116 0 -0.011753 0 2650 
1974 1 -0.0021 0.00983833 -0.01365 4.2e-05 0 -0.011753 0 2650 
171 1 -0.001998 0.00973933 -0.013459 0.000116 0 -0.011753 0 2650 
2222 1 -0.000169 0.00974633 -0.014111 0.000423 0 -0.011753 0 2650 
581 1 -0.005568 0.0106383 -0.014167 0.000423 0 -0.011753 0 2650 
4314 1 -0.00231943 0.0109702 -0.0138697 0.000423 -0.092085 0.0376702 0.0423056 2650 
1346 1 -0.00154191 0.0107023 -0.0141318 0.000423 0.0112383 0.146251 0.0960885 2650 
1476 1 -0.006941 0.0119173 -0.013435 0.000423 0 -0.011753 0 2650 
3669 1 -0.000597 0.0120233 -0.014068 0.000423 0 -0.011753 0 2650 
1409 1 -0.00044 0.0128973 -0.013868 0.000116 0 -0.011753 0 2650 
1525 1 -0.00523716 0.0176594 -0.0140893 0.000116 0.0348354 0.358887 0.286739 2650 
428 1 -0.00922 -0.00261067 -0.013206 0.000116 0 -0.011753 0 2650 
3015 1 -0.008364 -0.00266567 -0.013043 0.000423 0 -0.011753 0 2650 
827 1 -0.005975 -0.00278367 -0.013005 0.000116 0 -0.011753 0 2650 
167 1 -0.004273 -0.00262567 -0.012826 0.000116 0 -0.011753 0 2650 
2732 1 -0.002992 -0.00269067 -0.013183 0.000116 0 -0.011753 0 2650 
3633 1 -0.00941 -0.00208667 -0.013111 0.000423 0 -0.011753 0 2650 
1487 1 -0.004643 -0.00221667 -0.013241 0.000116 0 -0.011753 0 2650 
2685 1 -0.00715469 -0.00100336 -0.0132748 0.000423 -0.0312052 -0.0791633 0.0473875 2650 
1924 1 -0.0101389 -2.91003e-05 -0.0127804 0.000423 0.0334069 -0.0298079 -0.0209806 2650 
4056 1 -0.00588438 -0.000309178 -0.0128898 0.000656 0.0636768 -0.0676397 -0.0298947 2650 
3551 1 -0.005293 0.00125833 -0.013215 0.000423 0 -0.011753 0 2650 
1901 1 -0.00298701 0.00137691 -0.0128727 0.000423 -0.0507742 -0.0533762 0.0503681 2650 
1125 1 -0.000165 0.00184533 -0.013134 0.000423 0 -0.011753 0 2650 
4371 1 -0.000719 0.00265633 -0.012831 0.000116 0 -0.011753 0 2650 
2283 1 -0.000701 0.00297133 -0.012847 0.000116 0 -0.011753 0 2650 
2253 1 -0.00473354 0.00344437 -0.0128449 0.000423 0.0920831 0.035812 0.016033 2650 
2525 1 -0.004063 0.00334433 -0.013231 4.2e-05 0 -0.011753 0 2650 
1595 1 -0.007474 0.00400233 -0.012756 0.000423 0 -0.011753 0 2650 
2619 1 -0.005851 0.00416033 -0.012854 0.000116 0 -0.011753 0 2650 
3880 1 -0.010277 0.00507633 -0.012913 0.000423 0 -0.011753 0 2650 
2609 1 -0.00886 0.00488433 -0.013248 0.000116 0 -0.011753 0 2650 
2194 1 -0.002781 0.00529833 -0.012701 4.2e-05 0 -0.011753 0 2650 
2918 1 -0.00757 0.00623533 -0.012948 0.000116 0 -0.011753 0 2650 
933 1 -0.0070874 0.00558676 -0.0131612 0.000423 -0.205621 0.0138782 0.00393424 2650 
3917 1 -0.003984 0.00564533 -0.012703 0.000116 0 -0.011753 0 2650 
2059 1 -0.003583 0.00585433 -0.012756 0.000116 0 -0.011753 0 2650 
4241 1 -0.00121 0.00572933 -0.012987 0.000116 0 -0.011753 0 2650 
4078 1 -0.00609586 0.00759982 -0.0128753 0.000423 -0.0441213 0.108229 0.07417 2650 
2322 1 -0.00688 0.00838633 -0.013337 0.000656 0 -0.011753 0 2650 
1427 1 -0.002948 0.00818533 -0.013376 4.2e-05 0 -0.011753 0 2650 
3259 1 -0.008055 0.00925033 -0.013388 0.000116 0 -0.011753 0 2650 
4318 1 -0.007675 0.00892433 -0.012829 0.000423 0 -0.011753 0 2650 
1795 1 -0.008775 0.0101843 -0.012959 0.000423 0 -0.011753 0 2650 
1769 1 -0.004822 0.0101053 -0.013243 0.000656 0 -0.011753 0 2650 
4365 1 -0.00389095 0.0110397 -0.0132155 0.000116 0.0405996 0.230547 0.18265 2650 
1900 1 -0.00324056 0.010763 -0.0127002 0.000423 -0.1762 0.273782 0.0946679 2650 
205 1 -0.000744 0.0109013 -0.01334 0.000116 0 -0.011753 0 2650 
4160 1 -0.006657 0.0132673 -0.013271 4.2e-05 0 -0.011753 0 2650 
1775 1 -0.008218 0.0135763 -0.012996 0.000423 0 -0.011753 0 2650 
3644 1 -0.000733 0.0135723 -0.013392 0.000423 0 -0.011753 0 2650 
1654 1 -0.000960005 0.014915 -0.0131228 0.000656 0.177779 0.189864 0.355705 2650 
2722 1 -0.00819555 0.0189083 -0.0130975 0.000116 -0.375324 0.405951 -0.00725073 2650 
2957 1 -0.010592 -0.00240667 -0.012102 4.2e-05 0 -0.011753 0 2650 
4068 1 -0.001953 -0.00292467 -0.012327 0.000423 0 -0.011753 0 2650 
868 1 -0.000201 -0.00245667 -0.012301 0.000116 0 -0.011753 0 2650 
2238 1 -0.00701 -0.00219267 -0.01254 0.000423 0 -0.011753 0 2650 
4150 1 -0.001319 -0.00208167 -0.012208 0.000116 0 -0.011753 0 2650 
3261 1 -0.010456 -0.00123267 -0.012294 0.000116 0 -0.011753 0 2650 
3200 1 -0.00611938 -0.00130726 -0.0125293 0.000423 -0.0037223 -0.0499527 0.010669 2650 
2819 1 -0.007468 -9.6665e-05 -0.012046 0.000116 0 -0.011753 0 2650 
2468 1 -0.003167 -0.000257665 -0.012131 0.000423 0 -0.011753 0 2650 
545 1 -0.002328 -0.000630665 -0.012432 4.2e-05 0 -0.011753 0 2650 
950 1 -0.010031 0.000635335 -0.011866 0.000116 0 -0.011753 0 2650 
250 1 -0.00940924 0.00018483 -0.0123617 0.000423 0.0227233 -0.00814373 0.00847867 2650 
3385 1 -0.00422553 0.000416296 -0.0125108 0.000116 0.12168 -0.317561 0.11261 2650 
1763 1 -0.001143 3.0335e-05 -0.012442 0.000656 0 -0.011753 0 2650 
3643 1 -0.00431362 0.00108089 -0.0121845 0.000423 0.00104772 -0.00904669 0.00573747 2650 
3637 1 -0.002026 0.00120933 -0.012108 0.000423 0 -0.011753 0 2650 
3411 1 -0.0099021 0.00194622 -0.0122747 0.000656 -0.0844869 0.0381718 -0.0445825 2650 
1422 1 -0.003881 0.00187633 -0.012349 4.2e-05 0 -0.011753 0 2650 
623 1 -0.005429 0.00238333 -0.012246 0.000116 0 -0.011753 0 2650 
1799 1 -0.003237 0.00269133 -0.012061 0.000423 0 -0.011753 0 2650 
2813 1 -1e-05 0.00254333 -0.012237 0.000116 0 -0.011753 0 2650 
3956 1 -0.008956 0.00346233 -0.012273 0.000656 0 -0.011753 0 2650 
3201 1 -0.00406 0.00350749 -0.0121727 0.000423 0.0982966 0.0107837 0.0662699 2650 
2690 1 -0.000333 0.00331433 -0.012265 0.000423 0 -0.011753 0 2650 
3389 1 -0.010415 0.00414233 -0.012026 0.000116 0 -0.011753 0 2650 
856 1 -0.00389 0.00436133 -0.0119 0.000116 0 -0.011753 0 2650 
1657 1 -0.008553 0.00533666 -0.0120068 0.000656 -0.00770092 -0.0112608 -0.00233815 2650 
411 1 -0.009436 0.00581033 -0.012079 0.000116 0 -0.011753 0 2650 
3826 1 -0.009208 0.00603733 -0.012552 0.000116 0 -0.011753 0 2650 
2471 1 -0.00671659 0.00557383 -0.0120744 0.000423 -0.0907234 0.0202287 0.0449903 2650 
3316 1 -0.008979 0.00679033 -0.012376 0.000423 0 -0.011753 0 2650 
1261 1 -0.007462 0.00669433 -0.012403 0.000423 0 -0.011753 0 2650 
3362 1 -0.002672 0.00680333 -0.012199 0.000116 0 -0.011753 0 2650 
3446 1 -0.002592 0.00779733 -0.012627 0.000423 0 -0.011753 0 2650 
1590 1 -0.008874 0.00798433 -0.012037 0.000423 0 -0.011753 0 2650 
4066 1 -0.006253 0.00822433 -0.011956 0.000656 0 -0.011753 0 2650 
3030 1 -0.001189 0.00830033 -0.012596 0.000116 0 -0.011753 0 2650 
70 1 -0.010029 0.00922533 -0.01242 0.000116 0 -0.011753 0 2650 
191 1 -0.011348 0.00962133 -0.012254 0.000116 0 -0.011753 0 2650 
3847 1 -0.009739 0.0102223 -0.012406 0.000656 0 -0.011753 0 2650 
1495 1 -0.004483 0.00976833 -0.012591 0.000116 0 -0.011753 0 2650 
1250 1 -0.007399 0.0109473 -0.012448 0.000423 0 -0.011753 0 2650 
3173 1 -0.004958 0.0104293 -0.012321 4.2e-05 0 -0.011753 0 2650 
2109 1 -0.001932 0.0105683 -0.012277 0.000423 0 -0.011753 0 2650 
2630 1 -0.001036 0.0106373 -0.012074 4.2e-05 0 -0.011753 0 2650 
4002 1 -0.000443 0.0104613 -0.01223 0.000116 0 -0.011753 0 2650 
911 1 -0.00419174 0.0114468 -0.0124156 0.000423 -0.0142707 -0.015291 -0.00505979 2650 
65 1 -0.009488 0.0118423 -0.011959 0.000116 0 -0.011753 0 2650 
1423 1 -0.00145 0.0121173 -0.012526 4.2e-05 0 -0.011753 0 2650 
2483 1 -0.008006 0.0129993 -0.012441 0.000116 0 -0.011753 0 2650 
1578 1 -0.007713 0.0128383 -0.011972 0.000423 0 -0.011753 0 2650 
2205 1 -0.004822 0.0132883 -0.012334 0.000656 0 -0.011753 0 2650 
704 1 -0.01034 -0.00287767 -0.011479 0.000423 0 -0.011753 0 2650 
3999 1 -0.005715 -0.00272167 -0.011742 0.000423 0 -0.011753 0 2650 
3679 1 -0.012092 -0.00191967 -0.011604 0.000116 0 -0.011753 0 2650 
2072 1 -0.009308 -0.00205767 -0.011721 0.000116 0 -0.011753 0 2650 
3505 1 -0.006952 -0.000961665 -0.011235 4.2e-05 0 -0.011753 0 2650 
3191 1 -0.00378588 -0.00153612 -0.0114839 0.000656 -0.0505784 0.0119691 -0.00142744 2650 
1022 1 -0.002093 -0.00109167 -0.011454 0.000423 0 -0.011753 0 2650 
123 1 -0.010848 -0.000397665 -0.011246 0.000423 0 -0.011753 0 2650 
2166 1 -0.009005 -0.000551665 -0.011549 0.000116 0 -0.011753 0 2650 
2022 1 -0.004959 -0.000396665 -0.011261 0.000423 0 -0.011753 0 2650 
2827 1 -0.001988 0.000577335 -0.011163 0.000116 0 -0.011753 0 2650 
440 1 -0.00061 0.000340335 -0.011485 4.2e-05 0 -0.011753 0 2650 
3311 1 -0.00915335 0.00123828 -0.011463 0.000423 -0.111663 -0.0427051 0.0655867 2650 
2293 1 -0.00317948 0.00219283 -0.0117673 0.000116 0.310609 0.0311192 0.0518803 2650 
1452 1 -0.00142 0.00227933 -0.011258 0.000423 0 -0.011753 0 2650 
4215 1 -0.011184 0.00244933 -0.011524 0.000423 0 -0.011753 0 2650 
2279 1 -0.011345 0.00301233 -0.01145 0.000116 0 -0.011753 0 2650 
2579 1 -0.008716 0.00245933 -0.011261 0.000423 0 -0.011753 0 2650 
3535 1 -9.9e-05 0.00275233 -0.011488 0.000423 0 -0.011753 0 2650 
3223 1 -0.010476 0.00355433 -0.011335 0.000423 0 -0.011753 0 2650 
3894 1 -0.005583 0.00351133 -0.011098 0.000116 0 -0.011753 0 2650 
1063 1 -0.009531 0.00406633 -0.011683 0.000116 0 -0.011753 0 2650 
3383 1 -0.011681 0.00506133 -0.011229 0.000116 0 -0.011753 0 2650 
3235 1 -0.00640076 0.00476715 -0.0113739 0.000423 -0.00988696 -0.0212582 0.0528137 2650 
3542 1 -0.003838 0.00523733 -0.011253 0.000423 0 -0.011753 0 2650 
2294 1 -0.004894 0.00574733 -0.011565 0.000116 0 -0.011753 0 2650 
878 1 -0.003908 0.00623033 -0.011202 4.2e-05 0 -0.011753 0 2650 
708 1 -0.00252 0.00594333 -0.011391 0.000423 0 -0.011753 0 2650 
1822 1 -0.008034 0.00680033 -0.011166 0.000116 0 -0.011753 0 2650 
234 1 -0.004437 0.00677333 -0.011677 0.000423 0 -0.011753 0 2650 
1758 1 -0.00201 0.00706133 -0.01144 4.2e-05 0 -0.011753 0 2650 
1215 1 -0.009596 0.00735433 -0.01151 0.000656 0 -0.011753 0 2650 
4027 1 -0.003218 0.00819233 -0.011075 0.000116 0 -0.011753 0 2650 
2409 1 -0.002586 0.00813133 -0.011527 4.2e-05 0 -0.011753 0 2650 
222 1 -0.001264 0.00817933 -0.011144 0.000656 0 -0.011753 0 2650 
2798 1 -0.008755 0.00923133 -0.01131 0.000423 0 -0.011753 0 2650 
2913 1 -0.002971 0.00884033 -0.011434 0.000116 0 -0.011753 0 2650 
823 1 -0.000639 0.00936633 -0.011216 0.000423 0 -0.011753 0 2650 
1617 1 -0.00424 0.0101203 -0.011492 0.000116 0 -0.011753 0 2650 
2596 1 -0.001219 0.00967533 -0.011432 0.000116 0 -0.011753 0 2650 
1935 1 -0.00310196 0.0105782 -0.0111196 0.000116 -0.0650223 -0.119388 0.0262199 2650 
3684 1 -0.00483 0.0114023 -0.011273 0.000116 0 -0.011753 0 2650 
1663 1 -0.009704 0.0125153 -0.011499 0.000423 0 -0.011753 0 2650 
3145 1 -0.006381 0.0125833 -0.011273 0.000116 0 -0.011753 0 2650 
1143 1 -0.00198917 0.0127713 -0.0116535 0.000423 0.00744219 0.00969658 -0.00437689 2650 
2111 1 -0.009632 0.0135023 -0.011343 0.000423 0 -0.011753 0 2650 
976 1 -0.005828 0.0139603 -0.011785 0.000116 0 -0.011753 0 2650 
2820 1 -0.007052 -0.00270167 -0.010962 0.000116 0 -0.011753 0 2650 
3265 1 -0.006001 -0.00271367 -0.010684 0.000116 0 -0.011753 0 2650 
4373 1 -0.004239 -0.00169567 -0.010869 4.2e-05 0 -0.011753 0 2650 
3426 1 -0.000992 -0.00195567 -0.010574 0.000423 0 -0.011753 0 2650 
3603 1 -0.004768 -0.00135767 -0.010424 0.000116 0 -0.011753 0 2650 
15 1 -0.001892 -0.00130467 -0.010407 0.000423 0 -0.011753 0 2650 
2848 1 -0.010456 -0.000660665 -0.010698 4.2e-05 0 -0.011753 0 2650 
3640 1 -0.009654 -0.000499665 -0.010891 0.000423 0 -0.011753 0 2650 
3093 1 -0.002889 -6.5665e-05 -0.010782 0.000423 0 -0.011753 0 2650 
2130 1 -0.000316 -0.000240665 -0.010491 0.000423 0 -0.011753 0 2650 
3960 1 -0.008634 0.000247335 -0.010875 0.000423 0 -0.011753 0 2650 
1193 1 -4.3e-05 0.000325335 -0.010628 0.000116 0 -0.011753 0 2650 
3866 1 -0.011939 0.00130133 -0.01034 0.000423 0 -0.011753 0 2650 
281 1 -0.00973 0.00101733 -0.010656 0.000116 0 -0.011753 0 2650 
388 1 -0.008271 0.000843335 -0.010879 0.000116 0 -0.011753 0 2650 
2542 1 -0.005905 0.00112833 -0.010347 0.000423 0 -0.011753 0 2650 
3673 1 -0.00272 0.000789335 -0.010833 0.000423 0 -0.011753 0 2650 
3284 1 -0.001323 0.000814335 -0.010635 4.2e-05 0 -0.011753 0 2650 
3530 1 -0.000573 0.00128433 -0.010526 0.000423 0 -0.011753 0 2650 
1233 1 -0.012882 0.00244333 -0.010287 0.000423 0 -0.011753 0 2650 
4104 1 -0.009745 0.00320233 -0.010868 0.000423 0 -0.011753 0 2650 
497 1 -0.00574 0.00343733 -0.010398 0.000116 0 -0.011753 0 2650 
124 1 -0.005032 0.00334233 -0.01051 0.000423 0 -0.011753 0 2650 
1192 1 -0.004051 0.00366133 -0.010435 0.000116 0 -0.011753 0 2650 
2912 1 -0.006578 0.00560433 -0.010859 0.000116 0 -0.011753 0 2650 
3787 1 -0.006362 0.00604033 -0.010668 0.000116 0 -0.011753 0 2650 
1717 1 -0.00954883 0.0064292 -0.0104933 0.000116 0.397807 0.269137 0.223069 2650 
861 1 -0.006339 0.00655133 -0.010358 0.000116 0 -0.011753 0 2650 
760 1 -0.006943 0.00637733 -0.010573 4.2e-05 0 -0.011753 0 2650 
2326 1 -0.011808 0.00733033 -0.010725 0.000423 0 -0.011753 0 2650 
1381 1 -0.00201212 0.007563 -0.0108642 0.000116 0.0814598 0.325994 -0.167727 2650 
2948 1 -0.002008 0.00774333 -0.010384 0.000116 0 -0.011753 0 2650 
2500 1 -0.010648 0.00792633 -0.010771 0.000116 0 -0.011753 0 2650 
4166 1 -0.004213 0.00803333 -0.01052 0.000656 0 -0.011753 0 2650 
3727 1 -0.004412 0.00868133 -0.010287 4.2e-05 0 -0.011753 0 2650 
3456 1 -0.00340927 0.0088159 -0.0106586 0.000423 -0.00364508 -0.0138266 -0.0038965 2650 
2270 1 -0.00269778 0.00925211 -0.0107813 0.000116 0.291765 0.176844 -0.393424 2650 
1010 1 -0.011662 0.00993933 -0.010903 0.000423 0 -0.011753 0 2650 
3132 1 -0.007716 0.0100023 -0.01033 0.000116 0 -0.011753 0 2650 
2097 1 -0.00889 0.0104953 -0.010395 0.000656 0 -0.011753 0 2650 
1826 1 -0.00681409 0.0109998 -0.0104072 0.000116 0.303091 0.407482 -0.200615 2650 
89 1 -0.003936 0.0105473 -0.010466 0.000116 0 -0.011753 0 2650 
2861 1 -5.15142e-05 0.0108941 -0.0109979 0.000656 0.0605678 -0.014212 0.00425057 2650 
2759 1 -0.011495 0.0114953 -0.010915 0.000656 0 -0.011753 0 2650 
1376 1 -0.009927 0.0112413 -0.010971 0.000116 0 -0.011753 0 2650 
2261 1 -0.007381 0.0115923 -0.010514 0.000116 0 -0.011753 0 2650 
233 1 -0.004974 0.0118283 -0.010958 0.000423 0 -0.011753 0 2650 
2260 1 -0.008542 0.0122133 -0.010892 0.000116 0 -0.011753 0 2650 
1802 1 -0.004638 0.0125883 -0.010282 0.000423 0 -0.011753 0 2650 
4167 1 -0.003538 0.0119353 -0.010916 0.000656 0 -0.011753 0 2650 
499 1 -0.011613 0.0129633 -0.010379 0.000116 0 -0.011753 0 2650 
1754 1 -0.008854 0.0130693 -0.010611 4.2e-05 0 -0.011753 0 2650 
1913 1 -0.008189 0.0132033 -0.010954 0.000423 0 -0.011753 0 2650 
3899 1 -0.004387 0.0130873 -0.010427 0.000116 0 -0.011753 0 2650 
3595 1 -0.007357 0.0137723 -0.010628 0.000116 0 -0.011753 0 2650 
3767 1 -0.006013 0.0136883 -0.010843 0.000423 0 -0.011753 0 2650 
963 1 -0.000669 0.0137513 -0.010387 0.000116 0 -0.011753 0 2650 
1068 1 -0.01118 -0.00290067 -0.009643 0.000116 0 -0.011753 0 2650 
4285 1 -0.00940337 -0.00276576 -0.00984145 0.000423 -0.0326668 -0.0127335 -0.0140672 2650 
3409 1 -0.00838806 -0.00278993 -0.00947618 0.000656 -0.0237104 -0.0329197 -0.0228617 2650 
3652 1 -0.011014 -0.00184105 -0.0095632 0.000423 -0.0103103 -0.0416486 0.00256542 2650 
3933 1 -0.006596 -0.00199467 -0.009623 0.000116 0 -0.011753 0 2650 
939 1 -0.001916 -0.000938665 -0.009682 0.000116 0 -0.011753 0 2650 
1630 1 -0.00227 -0.000873665 -0.00958 0.000116 0 -0.011753 0 2650 
3756 1 -0.00822684 -0.000109819 -0.00986776 0.000423 -0.135759 0.0517513 -0.0013875 2650 
417 1 -0.004944 -0.000628665 -0.009884 0.000116 0 -0.011753 0 2650 
3460 1 -0.013084 0.000231335 -0.009951 0.000116 0 -0.011753 0 2650 
2778 1 -0.01202 0.000496335 -0.00976 0.000423 0 -0.011753 0 2650 
1750 1 -0.011512 0.00113833 -0.01018 4.2e-05 0 -0.011753 0 2650 
1160 1 -0.010117 0.00135433 -0.010115 0.000116 0 -0.011753 0 2650 
3264 1 -0.003542 0.00132533 -0.010108 0.000116 0 -0.011753 0 2650 
1562 1 -0.002141 0.000896335 -0.010154 0.000423 0 -0.011753 0 2650 
2164 1 -0.012835 0.00176133 -0.009898 0.000116 0 -0.011753 0 2650 
800 1 -0.00114 0.00161533 -0.009738 0.000423 0 -0.011753 0 2650 
3135 1 -0.00038 0.00229133 -0.010152 0.000116 0 -0.011753 0 2650 
3832 1 -0.01255 0.00274333 -0.009616 4.2e-05 0 -0.011753 0 2650 
2975 1 -0.011752 0.00237433 -0.009985 0.000656 0 -0.011753 0 2650 
4374 1 -0.008921 0.00250933 -0.009568 4.2e-05 0 -0.011753 0 2650 
3250 1 -0.008233 0.00248233 -0.010036 0.000116 0 -0.011753 0 2650 
1977 1 -0.006037 0.00375233 -0.009842 4.2e-05 0 -0.011753 0 2650 
3324 1 -0.0113584 0.00400893 -0.00989787 0.000423 -0.0148526 -0.0100043 0.0122397 2650 
364 1 -0.008943 0.00471233 -0.009746 0.000423 0 -0.011753 0 2650 
3031 1 -0.011934 0.00525233 -0.00971 0.000116 0 -0.011753 0 2650 
4013 1 -0.00529252 0.00535607 -0.00958081 0.000116 0.120721 0.294041 -0.0401455 2650 
2474 1 -0.001928 0.00509633 -0.009724 0.000423 0 -0.011753 0 2650 
3790 1 -0.012918 0.00568333 -0.010098 0.000116 0 -0.011753 0 2650 
3116 1 -0.01058 0.00575333 -0.009568 0.000423 0 -0.011753 0 2650 
958 1 -0.001223 0.00625133 -0.009713 0.000116 0 -0.011753 0 2650 
4256 1 -0.007946 0.00644633 -0.010197 0.000116 0 -0.011753 0 2650 
3364 1 -0.006241 0.00654533 -0.010015 0.000116 0 -0.011753 0 2650 
1310 1 -0.011355 0.00780533 -0.010263 4.2e-05 0 -0.011753 0 2650 
3071 1 -0.009089 0.00861033 -0.009836 4.2e-05 0 -0.011753 0 2650 
3967 1 -0.00793385 0.0100931 -0.00961786 0.000423 -0.00817862 -0.00706642 0.00830439 2650 
2581 1 -0.004751 0.00960733 -0.01 0.000423 0 -0.011753 0 2650 
2344 1 -0.001557 0.0105083 -0.009839 0.000423 0 -0.011753 0 2650 
3361 1 -5.4e-05 0.0107573 -0.010103 0.000116 0 -0.011753 0 2650 
3784 1 -0.00706686 0.0111134 -0.00950207 0.000116 0.141021 0.370812 0.19321 2650 
301 1 -0.005514 0.0116463 -0.009906 0.000116 0 -0.011753 0 2650 
660 1 -0.002925 0.0120873 -0.009723 4.2e-05 0 -0.011753 0 2650 
1827 1 -0.000405 0.0125923 -0.009578 0.000116 0 -0.011753 0 2650 
1087 1 -0.005985 0.0128993 -0.009545 0.000116 0 -0.011753 0 2650 
2781 1 -0.00310114 0.0131041 -0.0100146 0.000423 -0.0117237 -0.0176724 0.00043508 2650 
634 1 -0.0196718 -0.0172402 -0.00941004 0.000116 -3.24297 -1.10617 -1.50568 2650 
2846 1 -0.006122 -0.00308067 -0.009068 4.2e-05 0 -0.011753 0 2650 
2224 1 -0.004317 -0.00274467 -0.008931 0.000423 0 -0.011753 0 2650 
1239 1 -0.00337058 -0.00313667 -0.00897548 0.000423 -0.0112942 -0.0224869 -0.0158758 2650 
1787 1 -0.012291 -0.00170867 -0.008935 0.000423 0 -0.011753 0 2650 
4306 1 -0.00966103 -0.00177139 -0.00886919 0.000423 -0.126995 0.0327832 -0.0544925 2650 
756 1 -0.007322 -0.00172967 -0.009147 0.000116 0 -0.011753 0 2650 
661 1 -0.00812641 -0.00151077 -0.00922847 0.000656 -0.0248865 -0.0346178 0.0286859 2650 
3393 1 -0.006109 -0.000469665 -0.008736 4.2e-05 0 -0.011753 0 2650 
1690 1 -0.004681 -0.000592665 -0.00917 0.000423 0 -0.011753 0 2650 
159 1 -0.005821 0.000142335 -0.009096 0.000423 0 -0.011753 0 2650 
2436 1 -0.00693308 0.00154364 -0.00946446 0.000423 -0.243386 -0.136927 0.0258156 2650 
193 1 -0.010056 0.00189633 -0.009264 0.000116 0 -0.011753 0 2650 
3935 1 -0.00725739 0.00222975 -0.00896223 0.000116 -0.204491 0.0198831 0.095876 2650 
2299 1 -0.003792 0.00234933 -0.009457 4.2e-05 0 -0.011753 0 2650 
3219 1 -4.07237e-05 0.00216358 -0.00934981 0.000423 0.157702 -0.0561135 -0.0658825 2650 
3450 1 -0.011877 0.00268533 -0.008756 0.000423 0 -0.011753 0 2650 
1184 1 -0.011934 0.00293733 -0.00927 0.000116 0 -0.011753 0 2650 
608 1 -0.01048 0.00245533 -0.008875 0.000116 0 -0.011753 0 2650 
1121 1 -0.002698 0.00256733 -0.00928 0.000423 0 -0.011753 0 2650 
2541 1 -0.00656788 0.00419668 -0.0092438 0.000656 -0.00129575 -0.0112361 0.000264226 2650 
3558 1 -0.007141 0.00542833 -0.00937 0.000423 0 -0.011753 0 2650 
1171 1 -0.008755 0.00608533 -0.00943 0.000116 0 -0.011753 0 2650 
1567 1 -0.008425 0.00704433 -0.008875 0.000423 0 -0.011753 0 2650 
1584 1 -0.005051 0.00697933 -0.00882 0.000423 0 -0.011753 0 2650 
373 1 -0.01088 0.00730733 -0.009322 0.000423 0 -0.011753 0 2650 
842 1 -0.010207 0.00761033 -0.009055 0.000116 0 -0.011753 0 2650 
2633 1 -0.005185 0.00756033 -0.009252 4.2e-05 0 -0.011753 0 2650 
3984 1 -0.012135 0.00789633 -0.009019 0.000423 0 -0.011753 0 2650 
949 1 -0.004033 0.00811133 -0.009175 0.000116 0 -0.011753 0 2650 
4077 1 -0.012422 0.00913233 -0.00892 0.000423 0 -0.011753 0 2650 
2649 1 -0.00472 0.00901933 -0.008709 0.000656 0 -0.011753 0 2650 
368 1 -0.013572 0.00961133 -0.008947 0.000423 0 -0.011753 0 2650 
595 1 -0.009604 0.00980033 -0.009278 0.000423 0 -0.011753 0 2650 
4368 1 -0.004474 0.0101923 -0.008808 0.000116 0 -0.011753 0 2650 
3042 1 -0.012085 0.0108873 -0.009039 0.000116 0 -0.011753 0 2650 
2678 1 -0.01021 0.0108863 -0.009104 0.000423 0 -0.011753 0 2650 
2094 1 -0.006452 0.0117803 -0.009074 0.000656 0 -0.011753 0 2650 
1021 1 -0.012788 0.0124463 -0.008833 0.000423 0 -0.011753 0 2650 
796 1 -0.00925 0.0124123 -0.009199 0.000423 0 -0.011753 0 2650 
4179 1 -0.00479469 0.0119653 -0.00906908 0.000423 -0.00365698 -0.00657615 -0.0104014 2650 
1859 1 -0.011231 0.0132593 -0.009139 4.2e-05 0 -0.011753 0 2650 
232 1 -0.010455 0.0132513 -0.008807 0.000656 0 -0.011753 0 2650 
449 1 -0.002169 0.0126693 -0.008811 0.000656 0 -0.011753 0 2650 
473 1 -0.006405 0.0136003 -0.009211 0.000423 0 -0.011753 0 2650 
1521 1 -0.005494 0.0135933 -0.009109 0.000116 0 -0.011753 0 2650 
3588 1 -0.006639 0.0175908 -0.00893852 0.000116 -0.207803 0.370209 -1.04142 2650 
615 1 -0.01394 0.0295938 -0.00924715 0.000116 1.49245 -2.47082 -2.00335 2650 
1173 1 -0.0102834 0.0312061 -0.00899543 0.000116 -0.423529 1.32742 0.830452 2650 
4133 1 -0.0123257 -0.0118904 -0.00833214 0.000116 -1.85509 -0.797954 -1.09034 2650 
947 1 -0.013531 -0.00328667 -0.00802 0.000116 0 -0.011753 0 2650 
1818 1 -0.00468895 -0.00332281 -0.00795328 0.000116 -0.161388 -0.0204139 -0.273742 2650 
3875 1 -0.0080178 -0.00310305 -0.0082192 0.000423 -0.142912 -0.118758 0.115916 2650 
1774 1 -0.001246 -0.00273667 -0.00814 0.000423 0 -0.011753 0 2650 
2545 1 -0.012942 -0.00229667 -0.007898 0.000423 0 -0.011753 0 2650 
3482 1 -0.00382514 -0.00174418 -0.008157 0.000116 -0.317846 -0.0694407 0.0905378 2650 
811 1 -0.00338018 -0.00209302 -0.0085866 0.000423 -0.311032 -0.102629 0.0152998 2650 
2273 1 -0.013708 -0.000860665 -0.008112 0.000116 0 -0.011753 0 2650 
4036 1 -0.0101491 -0.00155929 -0.00826034 0.000116 -0.236998 0.0129395 -0.00539459 2650 
1169 1 -0.007648 -0.00141867 -0.008568 0.000116 0 -0.011753 0 2650 
3283 1 -0.006893 -1.3665e-05 -0.007981 4.2e-05 0 -0.011753 0 2650 