ITEM: TIMESTEP
1781670
ITEM: NUMBER OF ATOMS
4382
ITEM: BOX BOUNDS ff ff ff
-0.15 0.15
-0.15 0.06
-0.15 0.15
ITEM: ATOMS id type x y z radius vx vy vz density 
415 1 -0.0249092 -0.0565055 -0.0641994 0.000116 -2.88232 -1.48008 0.940212 2650 
3038 1 -0.0344906 -0.0515885 -0.0596282 0.000116 -3.97049 0.289283 2.28004 2650 
2964 1 -0.0436547 -0.0584708 -0.0533764 4.2e-05 -1.36974 0.351796 1.17104 2650 
3313 1 -0.0673248 -0.0540756 -0.0130496 0.000423 -0.800712 -0.212535 4.14382 2650 
3444 1 -0.0680376 -0.0536305 -0.00859516 0.000423 -0.580764 -0.0223923 4.52981 2650 
1845 1 -0.0629237 -0.0622044 0.0263159 0.000116 1.03627 0.0704603 3.22711 2650 
741 1 -0.0577196 -0.0583696 0.0375951 0.000116 2.26609 0.0511472 3.45781 2650 
3143 1 -0.0373731 -0.0590552 0.0578638 0.000116 3.74454 0.108845 2.42578 2650 
634 1 -0.0120028 -0.0566005 0.0678305 0.000116 4.31091 -0.780791 0.727559 2650 
1655 1 -0.00337012 -0.0464169 0.068263 0.000656 4.101 -0.529429 0.217525 2650 
3252 1 -0.00077969 -0.0393132 -0.0688793 0.000116 -3.37659 -0.594039 0.0629309 2650 
2083 1 -0.0036976 -0.0153852 -0.0688588 4.2e-05 -3.38244 -0.263664 0.209494 2650 
2800 1 -0.00423477 -0.0204247 -0.0684472 0.000423 -3.61887 -0.343862 0.237451 2650 
2576 1 -0.00770608 -0.0142919 -0.0681438 0.000423 -3.42078 -0.330618 0.373349 2650 
3642 1 -0.0140669 -0.0135267 -0.0671204 0.000423 -3.05085 -0.515896 0.698174 2650 
1555 1 -0.00989824 -0.0133281 -0.0678602 0.000423 -3.50822 -0.232936 0.488768 2650 
2641 1 -0.0093587 -0.00710221 -0.0677034 0.000656 -3.79846 0.112081 0.527546 2650 
3399 1 -0.0154942 -0.00556412 -0.0671916 4.2e-05 -3.2097 -0.115998 0.717493 2650 
2002 1 -0.0157783 -0.00792146 -0.0667316 0.000423 -3.49509 -0.209941 0.762207 2650 
3385 1 -0.0172816 -0.00787931 -0.0666684 0.000116 -3.06048 -0.2227 0.854397 2650 
3946 1 -0.0200409 -0.0432108 -0.0659813 4.2e-05 -3.1548 -0.685669 0.976404 2650 
3079 1 -0.0183475 -0.0212409 -0.065837 0.000656 -3.42694 -0.826677 0.916609 2650 
4095 1 -0.0183137 -0.0186556 -0.0660873 0.000423 -3.54051 -0.372994 0.923071 2650 
4268 1 -0.020411 -0.0105151 -0.0658373 4.2e-05 -3.09838 -0.249104 0.937991 2650 
3692 1 -0.0201759 -0.0084409 -0.0658285 0.000116 -3.1399 -0.177282 0.961365 2650 
4309 1 -0.0225473 -0.0277041 -0.0647641 0.000423 -3.31417 -0.539835 1.11746 2650 
122 1 -0.019516 -0.0166756 -0.0654901 0.000656 -3.67323 -0.2478 1.13412 2650 
4020 1 -0.0248697 -0.0104915 -0.0642375 0.000116 -5.68467 -0.308601 2.2081 2650 
1560 1 -0.0249932 -0.00451946 -0.0638612 0.000423 -3.39585 0.17604 1.31971 2650 
2670 1 -0.0275654 -0.0205165 -0.0627941 0.000423 -3.5782 -0.586907 1.56517 2650 
538 1 -0.0283627 -0.00542483 -0.062774 0.000116 -2.87549 0.00379207 1.31573 2650 
406 1 -0.0204444 -0.00495599 -0.0627077 0.000116 -2.55987 -0.103837 2.0312 2650 
1735 1 -0.0319782 -0.0035989 -0.0610112 0.000116 -5.84586 -1.23895 3.06457 2650 
3650 1 -0.0319051 -0.0092536 -0.0607044 0.000423 -2.61373 -0.191842 1.40388 2650 
27 1 -0.0336218 -0.0165114 -0.0597706 0.000423 -3.01691 -0.321267 1.70536 2650 
671 1 -0.0325554 -0.00674255 -0.0599068 0.000656 -2.85022 -0.15348 3.46883 2650 
2663 1 -0.0358264 -0.00936918 -0.0584659 0.000423 -2.89735 -0.255905 1.74752 2650 
632 1 -0.0355855 -0.00814147 -0.0589795 0.000116 -2.86671 -0.0910249 1.76341 2650 
4250 1 -0.037449 -0.013659 -0.0578087 0.000116 -3.60013 -0.176079 2.35438 2650 
245 1 -0.0373788 -0.00962093 -0.0574865 0.000423 -2.72076 -0.228101 1.74407 2650 
3534 1 -0.0402343 -0.0169036 -0.0555294 0.000423 -3.26394 -0.295559 2.2895 2650 
476 1 -0.0399232 -0.000710318 -0.0557582 0.000423 -2.84977 -0.0930533 2.04984 2650 
2920 1 -0.0431666 -0.0134427 -0.0536694 0.000116 -2.27249 -0.337311 2.14961 2650 
3619 1 -0.0447841 -0.00864012 -0.0524362 4.2e-05 -2.54475 -0.182336 2.15835 2650 
3845 1 -0.0445481 -0.0261074 -0.0518175 0.000656 -2.8786 -0.54533 2.3448 2650 
21 1 -0.0451647 -0.0195136 -0.0516047 0.000423 -2.9541 -0.33286 2.59732 2650 
1383 1 -0.0457022 -0.014541 -0.0515396 0.000116 -2.41758 -0.277759 2.10637 2650 
259 1 -0.0447403 -0.00613632 -0.0519731 0.000423 -2.67737 -0.0782133 2.27937 2650 
1943 1 -0.0473093 -0.0243955 -0.0500668 0.000116 -2.39869 -0.896386 2.20051 2650 
2057 1 -0.0493696 -0.00931664 -0.0480388 0.000116 -2.42623 -0.154504 2.49814 2650 
2846 1 -0.0499789 -0.00476281 -0.0474381 4.2e-05 -2.22771 -0.0897998 2.22439 2650 
2618 1 -0.0503588 -0.0151643 -0.0470005 0.000116 -2.17355 -0.319106 2.34883 2650 
4293 1 -0.0506084 -0.0209314 -0.0462782 0.000423 -3.02445 -0.551092 3.30227 2650 
4345 1 -0.0513564 -0.0182988 -0.0459074 0.000116 -2.59827 -0.359559 2.91059 2650 
1638 1 -0.0519408 -0.035867 -0.045246 0.000116 -2.75955 -0.652846 3.17231 2650 
2123 1 -0.0520467 -0.0143339 -0.0446549 0.000423 -2.07415 -0.196112 2.43239 2650 
3156 1 -0.0547955 -0.0201696 -0.0417428 0.000116 -1.98822 -0.455456 2.60672 2650 
3540 1 -0.0523991 -0.00722555 -0.0386987 0.000423 -1.34246 -0.106718 3.33537 2650 
1016 1 -0.0568338 -0.0119981 -0.0383781 0.000423 -1.94462 -0.00450229 2.96 2650 
3479 1 -0.00142046 -0.00674608 -0.0383003 0.000116 -0.243614 -0.309037 -5.84605 2650 
3409 1 -0.0591507 -0.0232384 -0.0342355 0.000656 -1.75565 -1.08787 2.80887 2650 
691 1 -0.0596616 -0.00984747 -0.0337756 0.000423 -1.83491 -0.301232 2.97835 2650 
4025 1 -0.0602532 -0.00651177 -0.0333207 0.000116 -1.65088 -0.155182 2.82062 2650 
2208 1 -0.0600385 -0.0122215 -0.0325969 0.000656 -1.70808 -0.459165 3.07598 2650 
811 1 -0.0235682 -0.00453187 -0.0309414 0.000423 -3.57808 -0.135141 -4.69353 2650 
3482 1 -0.063048 -0.00980194 -0.0277434 0.000116 -1.33815 -0.27663 3.04762 2650 
1239 1 -0.0630952 -0.0416441 -0.0268706 0.000423 -1.62037 -1.43123 3.81336 2650 
1990 1 -0.0633626 -0.0142679 -0.0256158 0.000656 -1.52616 -0.500936 3.83873 2650 
1387 1 -0.064009 -0.00859232 -0.025453 0.000116 -1.19686 -0.227141 2.98677 2650 
1068 1 -0.0639827 -0.00560499 -0.0255187 0.000116 -1.20837 -0.135713 2.99813 2650 
3586 1 -0.0613143 -0.00433738 -0.0259612 0.000116 -2.76127 -0.0049559 2.03021 2650 
2337 1 -0.0637208 -0.00278686 -0.025348 0.000423 -1.53797 0.220431 3.83813 2650 
3266 1 -0.0645406 -0.00855776 -0.0240735 0.000116 -1.11138 -0.164434 2.94935 2650 
3652 1 -0.0287178 -0.00887824 -0.0228312 0.000423 -4.01436 -0.585811 -3.21883 2650 
4307 1 -0.0648089 -0.00626444 -0.0224227 0.000423 -1.02037 -0.11501 2.85231 2650 
3583 1 -0.0338098 -0.00481733 -0.0194478 0.000116 -5.29362 -0.136653 -3.04495 2650 
468 1 -0.0658626 -0.013126 -0.0185559 0.000423 0.901452 -0.458901 3.69534 2650 
4068 1 -0.00150018 -0.0045289 -0.0183606 0.000423 0.166011 -0.318469 -1.65342 2650 
3329 1 -0.0663609 -0.0198009 -0.0172971 0.000423 -1.08018 -0.436692 4.17811 2650 
1721 1 -0.0664992 -0.0104317 -0.0173596 0.000116 -1.30758 -0.34444 2.93475 2650 
3945 1 -0.0668101 -0.0129201 -0.017077 4.2e-05 -0.81707 -0.27182 3.27318 2650 
2238 1 -0.00941426 -0.00683591 -0.0172678 0.000423 -0.760426 -0.792612 -1.49248 2650 
606 1 -0.000183 0.00470567 -0.016592 0.000116 0 -0.011753 0 2650 
2713 1 -0.000763 0.0116767 -0.016767 0.000116 0 -0.011753 0 2650 
4116 1 -0.004072 -0.000951329 -0.016193 0.000116 0 -0.011753 0 2650 
1808 1 -0.00167145 -0.000983371 -0.0161232 0.000423 -0.246484 0.0545561 0.0154006 2650 
93 1 -0.00354 -0.000540329 -0.016299 0.000116 0 -0.011753 0 2650 
3733 1 -0.00270782 -0.000654552 -0.0158216 0.000656 -0.00903733 0.00595212 -0.0173299 2650 
541 1 -0.00203126 0.0005788 -0.0158031 4.2e-05 -0.135438 -0.249779 -0.101528 2650 
1991 1 -0.002768 0.00103867 -0.01599 0.000656 0 -0.011753 0 2650 
736 1 -0.003429 0.00263067 -0.016474 0.000116 0 -0.011753 0 2650 
2013 1 -0.00309801 0.00388703 -0.0160881 0.000423 0.00266818 -0.00871737 -0.00337826 2650 
3789 1 -0.0021906 0.00510248 -0.0163103 0.000116 -0.0185147 0.0392615 -0.0216295 2650 
3546 1 -0.002797 0.00576767 -0.016252 0.000423 0 -0.011753 0 2650 
188 1 -0.00068 0.00624767 -0.016516 0.000116 0 -0.011753 0 2650 
2301 1 -0.004222 0.00647867 -0.016305 4.2e-05 0 -0.011753 0 2650 
3616 1 -0.000938 0.00704267 -0.016074 4.2e-05 0 -0.011753 0 2650 
3934 1 -0.001977 0.00946767 -0.016218 0.000116 0 -0.011753 0 2650 
3622 1 -0.00597206 -0.00471014 -0.0156687 0.000656 -0.196307 -0.569078 -0.605094 2650 
3295 1 -0.00315205 -0.00316142 -0.0156959 0.000656 -0.0797054 0.00773994 0.0926435 2650 
3441 1 -0.00542416 -0.00193917 -0.0154349 0.000423 0.0910415 0.168069 0.0762471 2650 
330 1 -0.001698 -0.00127633 -0.015557 4.2e-05 0 -0.011753 0 2650 
2965 1 -2.2e-05 -0.000970329 -0.015341 4.2e-05 0 -0.011753 0 2650 
1679 1 -0.00360277 0.00353457 -0.0154522 0.000423 -0.000267589 -0.00703629 -0.00433961 2650 
3380 1 -0.00333208 0.00388495 -0.0150072 0.000116 0.0634779 0.0483386 -0.0170944 2650 
3645 1 -0.00192709 0.00364727 -0.0150438 0.000423 -0.016092 0.00258107 0.0270932 2650 
3322 1 -0.00472049 0.00517923 -0.0155296 0.000423 0.00353739 -0.017928 0.0139954 2650 
1219 1 -0.00355667 0.00501386 -0.0150947 0.000656 0.0362784 0.0225017 -0.0291106 2650 
2399 1 -0.002418 0.00491967 -0.015541 0.000116 0 -0.011753 0 2650 
4296 1 -0.00157975 0.00544117 -0.0156191 0.000423 -0.000356005 -0.0132873 -0.00240934 2650 
2293 1 -0.000378902 0.00488198 -0.0151462 0.000116 0.0416688 0.071753 -0.100968 2650 
1986 1 -0.00393521 0.00782821 -0.0153448 0.000656 0.00762539 0.0149956 0.0116892 2650 
2969 1 -0.001381 0.00748967 -0.015354 0.000656 0 -0.011753 0 2650 
978 1 -0.005372 0.00816567 -0.015286 0.000116 0 -0.011753 0 2650 
171 1 -0.00213413 0.00865506 -0.0150358 0.000116 0.0221612 -0.025445 0.125633 2650 
3106 1 -0.00320779 0.00981643 -0.0150226 0.000423 -0.04352 0.00221127 0.120558 2650 
3830 1 -0.006879 0.0110197 -0.015411 4.2e-05 0 -0.011753 0 2650 
86 1 -0.002064 0.0107237 -0.015055 0.000116 0 -0.011753 0 2650 
3177 1 -0.001068 0.0105237 -0.015412 4.2e-05 0 -0.011753 0 2650 
1974 1 -0.00420369 0.0115022 -0.0153501 4.2e-05 -0.0467969 0.0595522 0.116927 2650 
938 1 -0.000869 0.0119297 -0.015416 0.000116 0 -0.011753 0 2650 
3632 1 -0.00662846 0.0128164 -0.0151466 0.000423 -0.0309354 -0.00107411 -0.000159427 2650 
2701 1 -0.00263605 0.0139284 -0.0152426 0.000116 0.0331549 0.247236 -0.00676049 2650 
1357 1 -0.00587298 0.0177402 -0.0151385 0.000423 -0.0662446 0.165624 0.033916 2650 
456 1 -0.00115738 0.0427065 -0.0157237 0.000423 -0.932142 0.0851942 -0.122278 2650 
2056 1 -0.00689052 0.0497433 -0.0151894 0.000116 -1.30399 -0.455027 0.568295 2650 
4034 1 -0.00297361 0.0514103 -0.015185 0.000116 -0.398405 0.494511 0.339202 2650 
2066 1 -0.055503 -0.00497558 -0.0145648 0.000116 -8.36211 -0.17496 -2.21368 2650 
4138 1 -0.0135357 -0.00459777 -0.0143461 0.000116 -1.99312 -0.159738 -2.06475 2650 
2224 1 -0.0669774 -0.00347706 -0.0147289 0.000423 -0.752497 0.0681894 3.3676 2650 
2256 1 -0.001753 -0.00316633 -0.014775 0.000116 0 -0.011753 0 2650 
3303 1 -0.00713722 -0.0028127 -0.0146816 0.000656 -0.106481 -0.00387586 -0.00128009 2650 
747 1 -0.001416 -0.00314633 -0.014317 0.000116 0 -0.011753 0 2650 
3502 1 -0.001236 -0.00217133 -0.014816 4.2e-05 0 -0.011753 0 2650 
1640 1 -0.001358 -0.000838329 -0.014495 4.2e-05 0 -0.011753 0 2650 
2413 1 -0.003433 -0.000156329 -0.014868 4.2e-05 0 -0.011753 0 2650 
2313 1 -0.005044 5.67107e-06 -0.014923 0.000656 0 -0.011753 0 2650 
955 1 -0.00183566 0.000362712 -0.0145749 0.000116 -0.0472058 0.0174319 0.219851 2650 
1053 1 -0.007469 0.00107767 -0.014946 0.000116 0 -0.011753 0 2650 
2332 1 -0.003268 0.00136867 -0.014853 0.000423 0 -0.011753 0 2650 
3239 1 -0.002155 0.00128767 -0.014442 0.000116 0 -0.011753 0 2650 
615 1 -0.00811281 0.00362318 -0.0146507 0.000116 -0.252932 -0.215862 0.19003 2650 
220 1 -0.003649 0.00398267 -0.014897 4.2e-05 0 -0.011753 0 2650 
104 1 -0.00218 0.00423167 -0.014554 4.2e-05 0 -0.011753 0 2650 
3121 1 -0.00692851 0.00506884 -0.0149809 0.000423 0.0277737 -0.000599869 -0.0089826 2650 
4165 1 -0.00553904 0.00535925 -0.0148287 0.000656 0.00388545 0.0106393 0.0146387 2650 
3147 1 -0.00197961 0.00510964 -0.0146539 0.000116 -0.00706837 0.0221131 0.0132401 2650 
3564 1 -0.000147 0.00670867 -0.014738 0.000423 0 -0.011753 0 2650 
2438 1 -0.005612 0.00728067 -0.014612 0.000423 0 -0.011753 0 2650 
3365 1 -0.002315 0.00734567 -0.014552 0.000116 0 -0.011753 0 2650 
4190 1 -0.007319 0.00901567 -0.014559 0.000423 0 -0.011753 0 2650 
3515 1 -0.00542601 0.00931593 -0.014924 0.000656 -0.0258541 -0.014476 -0.00535425 2650 
2596 1 -0.00226083 0.0105663 -0.0142229 0.000116 -0.0696583 -0.0414928 -0.0233005 2650 
1228 1 -0.001302 0.0108007 -0.014946 0.000423 0 -0.011753 0 2650 
371 1 -0.000523356 0.0107794 -0.0144395 0.000423 -0.000508818 -0.00613125 -0.00679769 2650 
1381 1 -0.0076755 0.0129347 -0.0146774 0.000116 -0.000908202 0.0816555 0.108061 2650 
884 1 -0.00543682 0.0128984 -0.0145272 0.000656 -0.0213431 0.0225291 0.0346991 2650 
728 1 -0.00417853 0.0135805 -0.0145982 0.000116 0.0277452 0.106546 0.043675 2650 
1687 1 -0.0672272 -0.0195755 -0.0135396 0.000423 -0.756417 -0.259308 3.83079 2650 
3073 1 -0.00873451 -0.00423439 -0.0137431 4.2e-05 -0.797997 -0.985769 -1.34514 2650 
3229 1 -0.00656347 -0.00314167 -0.0135663 0.000423 0.00758146 -0.0257585 0.0260569 2650 
327 1 -0.003849 -0.00292833 -0.013874 4.2e-05 0 -0.011753 0 2650 
2705 1 -0.001432 -0.00310933 -0.013674 0.000116 0 -0.011753 0 2650 
1393 1 -0.009523 -0.00182133 -0.013534 0.000116 0 -0.011753 0 2650 
2939 1 -0.008405 -0.00212533 -0.013483 0.000116 0 -0.011753 0 2650 
4056 1 -0.00354714 -0.00179516 -0.013656 0.000656 0.0545981 -0.0365229 -0.0165599 2650 
2783 1 -0.00318822 -0.000646453 -0.0138091 0.000423 0.0164122 0.0046694 -0.00599805 2650 
4126 1 -0.001667 -0.000713329 -0.013741 0.000116 0 -0.011753 0 2650 
3778 1 -0.003893 0.000730671 -0.013816 0.000423 0 -0.011753 0 2650 
856 1 -0.00265077 0.0016566 -0.0135316 0.000116 0.0675892 -0.133711 -0.0889902 2650 
1620 1 -0.008456 0.00274967 -0.013856 0.000116 0 -0.011753 0 2650 
2957 1 -0.00725579 0.00260495 -0.0136084 4.2e-05 0.190271 0.24155 -0.0115339 2650 
3351 1 -0.00410808 0.00320049 -0.0138198 0.000116 0.0791294 -0.101341 -0.231207 2650 
3587 1 -0.006279 0.00400667 -0.013694 0.000116 0 -0.011753 0 2650 
1569 1 -0.00243698 0.00397856 -0.0137523 0.000423 -0.0214881 0.00570095 0.0411068 2650 
958 1 -0.00377003 0.00746737 -0.0136129 0.000116 -0.112936 0.0629473 -0.172921 2650 
2322 1 -0.00715811 0.00822413 -0.0135587 0.000656 -0.00732336 -0.00366906 -0.00588437 2650 
713 1 -0.00505617 0.00862922 -0.013769 0.000423 -0.0205718 -0.00213651 0.0254432 2650 
1288 1 -0.002467 0.00864867 -0.014044 0.000116 0 -0.011753 0 2650 
2222 1 -0.000169 0.00927767 -0.014111 0.000423 0 -0.011753 0 2650 
581 1 -0.005568 0.0101697 -0.014167 0.000423 0 -0.011753 0 2650 
1476 1 -0.006941 0.0114487 -0.013435 0.000423 0 -0.011753 0 2650 
3669 1 -0.000551046 0.0116447 -0.0141479 0.000423 0.00220454 -0.00743356 -0.00383523 2650 
2250 1 -0.00593635 0.0122561 -0.0137188 0.000423 -0.0796097 0.0756391 0.0421091 2650 
1409 1 -0.00044 0.0124287 -0.013868 0.000116 0 -0.011753 0 2650 
827 1 -0.005975 -0.00325233 -0.013005 0.000116 0 -0.011753 0 2650 
2732 1 -0.002992 -0.00315933 -0.013183 0.000116 0 -0.011753 0 2650 
4074 1 -0.00062676 -0.00373161 -0.013379 0.000423 -0.155465 -0.0993843 -1.48028 2650 
428 1 -0.00922 -0.00307933 -0.013206 0.000116 0 -0.011753 0 2650 
3633 1 -0.00941 -0.00255533 -0.013111 0.000423 0 -0.011753 0 2650 
3015 1 -0.0083759 -0.00315597 -0.0130747 0.000423 -0.00116941 -0.012348 -0.00262115 2650 
167 1 -0.004273 -0.00309433 -0.012826 0.000116 0 -0.011753 0 2650 
1487 1 -0.004643 -0.00268533 -0.013241 0.000116 0 -0.011753 0 2650 
1320 1 -0.00432399 -0.00277695 -0.0128793 4.2e-05 -0.254702 -0.0436543 -0.0976793 2650 
3200 1 -0.00680814 -0.00220872 -0.0130582 0.000423 -0.0584286 0.0362387 -0.0708842 2650 
3196 1 -0.00580385 -0.000398077 -0.0132309 0.000423 0.0418395 0.00921167 -0.158288 2650 
3904 1 -0.000199229 -0.000779556 -0.0127932 0.000116 -0.100637 -0.0180957 -0.076892 2650 
3551 1 -0.005293 0.000789671 -0.013215 0.000423 0 -0.011753 0 2650 
1125 1 -0.000261391 0.00142618 -0.0131928 0.000423 -0.0286183 0.00294241 -0.0174616 2650 
4371 1 -0.000719 0.00218767 -0.012831 0.000116 0 -0.011753 0 2650 
1093 1 -0.000210949 0.00225702 -0.0130858 4.2e-05 -0.16655 0.0307473 -0.14405 2650 
2525 1 -0.004063 0.00287567 -0.013231 4.2e-05 0 -0.011753 0 2650 
2283 1 -0.000701 0.00250267 -0.012847 0.000116 0 -0.011753 0 2650 
1595 1 -0.007474 0.00353367 -0.012756 0.000423 0 -0.011753 0 2650 
2619 1 -0.005851 0.00369167 -0.012854 0.000116 0 -0.011753 0 2650 
3880 1 -0.010277 0.00460767 -0.012913 0.000423 0 -0.011753 0 2650 
2609 1 -0.00886 0.00441567 -0.013248 0.000116 0 -0.011753 0 2650 
1059 1 -0.00685248 0.00401571 -0.0126719 0.000116 -0.00683586 -0.0187509 0.0600761 2650 
2485 1 -0.00335706 0.00458635 -0.0132775 0.000116 0.105115 -0.0174821 0.0881387 2650 
2547 1 -0.00867431 0.00507931 -0.0131378 0.000423 -0.0347886 0.0314203 0.0010098 2650 
3917 1 -0.003984 0.00517667 -0.012703 0.000116 0 -0.011753 0 2650 
2059 1 -0.003583 0.00538567 -0.012756 0.000116 0 -0.011753 0 2650 
2194 1 -0.002781 0.00482967 -0.012701 4.2e-05 0 -0.011753 0 2650 
2918 1 -0.00757 0.00576667 -0.012948 0.000116 0 -0.011753 0 2650 
4078 1 -0.00656285 0.0074862 -0.0128775 0.000423 -0.0196946 -0.00953845 0.00130892 2650 
1427 1 -0.002948 0.00771667 -0.013376 4.2e-05 0 -0.011753 0 2650 
4318 1 -0.00789293 0.00860616 -0.0127113 0.000423 -0.00589465 -0.00768269 0.00318441 2650 
3259 1 -0.008055 0.00878167 -0.013388 0.000116 0 -0.011753 0 2650 
70 1 -0.0107296 0.00972985 -0.0128694 0.000116 -0.0438474 0.0364979 -0.0265492 2650 
1795 1 -0.008775 0.00971567 -0.012959 0.000423 0 -0.011753 0 2650 
1769 1 -0.004822 0.00963667 -0.013243 0.000656 0 -0.011753 0 2650 
205 1 -0.000744 0.0104327 -0.01334 0.000116 0 -0.011753 0 2650 
2483 1 -0.00837304 0.0124439 -0.0129813 0.000116 -0.0165283 -0.027419 -0.0195094 2650 
2109 1 -0.00265903 0.0124417 -0.0127733 0.000423 -0.0263796 0.073224 -0.0180073 2650 
1775 1 -0.00821887 0.0131144 -0.0130001 0.000423 -7.29146e-05 -0.011186 -0.000346901 2650 
4160 1 -0.006657 0.0127987 -0.013271 4.2e-05 0 -0.011753 0 2650 
3644 1 -0.000733 0.0131037 -0.013392 0.000423 0 -0.011753 0 2650 
3859 1 -0.002513 0.017994 -0.0129196 0.000423 0.0625424 0.161989 -0.116581 2650 
1900 1 -0.0060018 0.0187972 -0.0131003 0.000423 -0.0944124 0.200719 -0.0873639 2650 
1026 1 -0.00682953 0.0318678 -0.0128179 0.000423 0.0636188 0.283269 0.255551 2650 
4150 1 -0.001319 -0.00255033 -0.012208 0.000116 0 -0.011753 0 2650 
868 1 -0.000201 -0.00292533 -0.012301 0.000116 0 -0.011753 0 2650 
3999 1 -0.00474808 -0.00206899 -0.0124606 0.000423 0.079397 0.0433527 -0.0799067 2650 
545 1 -0.002328 -0.00109933 -0.012432 4.2e-05 0 -0.011753 0 2650 
2819 1 -0.007468 -0.000565329 -0.012046 0.000116 0 -0.011753 0 2650 
2468 1 -0.003167 -0.000726329 -0.012131 0.000423 0 -0.011753 0 2650 
1763 1 -0.001143 -0.000438329 -0.012442 0.000656 0 -0.011753 0 2650 
950 1 -0.010031 0.000166671 -0.011866 0.000116 0 -0.011753 0 2650 
3637 1 -0.002026 0.000740671 -0.012108 0.000423 0 -0.011753 0 2650 
1422 1 -0.003881 0.00140767 -0.012349 4.2e-05 0 -0.011753 0 2650 
623 1 -0.005429 0.00191467 -0.012246 0.000116 0 -0.011753 0 2650 
1799 1 -0.003237 0.00222267 -0.012061 0.000423 0 -0.011753 0 2650 
3956 1 -0.008956 0.00299367 -0.012273 0.000656 0 -0.011753 0 2650 
3389 1 -0.010415 0.00367367 -0.012026 0.000116 0 -0.011753 0 2650 
411 1 -0.00947429 0.00536608 -0.0120801 0.000116 -0.00787832 -0.00657823 -8.20909e-05 2650 
1657 1 -0.00886905 0.00488683 -0.0120667 0.000656 -0.0116375 -0.0115716 0.0121112 2650 
2253 1 -0.00106162 0.00487242 -0.0122056 0.000423 0.0920831 0.035812 0.016033 2650 
3826 1 -0.009208 0.00556867 -0.012552 0.000116 0 -0.011753 0 2650 
1261 1 -0.007462 0.00622567 -0.012403 0.000423 0 -0.011753 0 2650 
234 1 -0.00439353 0.00621296 -0.0124429 0.000423 0.00472056 -0.0217141 -0.0831894 2650 
222 1 -0.00135554 0.0059704 -0.0122136 0.000656 -0.00297797 -0.0641339 -0.0320517 2650 
3316 1 -0.008979 0.00632167 -0.012376 0.000423 0 -0.011753 0 2650 
3362 1 -0.002672 0.00633467 -0.012199 0.000116 0 -0.011753 0 2650 
3446 1 -0.002592 0.00732867 -0.012627 0.000423 0 -0.011753 0 2650 
3030 1 -0.001189 0.00783167 -0.012596 0.000116 0 -0.011753 0 2650 
191 1 -0.011348 0.00915267 -0.012254 0.000116 0 -0.011753 0 2650 
1495 1 -0.004483 0.00929967 -0.012591 0.000116 0 -0.011753 0 2650 
675 1 -0.00216178 0.00918078 -0.0126247 0.000423 -0.0542955 0.145292 -0.148325 2650 
3847 1 -0.00973829 0.00975451 -0.0124058 0.000656 6.67707e-05 -0.0116743 2.1441e-05 2650 
3173 1 -0.004958 0.00996067 -0.012321 4.2e-05 0 -0.011753 0 2650 
2630 1 -0.001036 0.0101687 -0.012074 4.2e-05 0 -0.011753 0 2650 
4002 1 -0.000443 0.00999267 -0.01223 0.000116 0 -0.011753 0 2650 
1250 1 -0.007399 0.0104787 -0.012448 0.000423 0 -0.011753 0 2650 
65 1 -0.009488 0.0113737 -0.011959 0.000116 0 -0.011753 0 2650 
4314 1 -0.0058316 0.0117283 -0.0125268 0.000423 -0.081014 -0.0186136 0.0169729 2650 
1423 1 -0.00145 0.0116487 -0.012526 4.2e-05 0 -0.011753 0 2650 
1578 1 -0.00950347 0.0126734 -0.0120275 0.000423 -0.0613912 -0.00297521 -0.0243633 2650 
2205 1 -0.00485112 0.0130252 -0.0122651 0.000656 -0.00242931 0.00374128 0.00608177 2650 
4372 1 -0.0679526 -0.0248446 -0.0117007 4.2e-05 -0.613849 -0.517145 3.35081 2650 
2685 1 -0.0088084 -0.00327817 -0.0118354 0.000423 -0.0435841 -0.0507847 0.0344431 2650 
3679 1 -0.012092 -0.00238833 -0.011604 0.000116 0 -0.011753 0 2650 
3261 1 -0.0106747 -0.0028145 -0.0117647 0.000116 -0.0103871 -0.0646193 0.0251386 2650 
2072 1 -0.009308 -0.00252633 -0.011721 0.000116 0 -0.011753 0 2650 
2544 1 -0.00143478 -0.00262965 -0.0114966 0.000423 -0.120839 -0.0237096 -0.0167299 2650 
1924 1 -0.0103289 -0.00207774 -0.0116986 0.000423 0.000254196 -0.0523207 0.0386036 2650 
2166 1 -0.009005 -0.00102033 -0.011549 0.000116 0 -0.011753 0 2650 
3505 1 -0.006952 -0.00143033 -0.011235 4.2e-05 0 -0.011753 0 2650 
3191 1 -0.00561093 -0.00110832 -0.0114974 0.000656 -0.0419897 0.0348006 0.00745458 2650 
1901 1 -0.00416029 -0.000860798 -0.0111512 0.000423 -0.0220801 -0.0570589 0.0406976 2650 
1022 1 -0.002093 -0.00156033 -0.011454 0.000423 0 -0.011753 0 2650 
3960 1 -0.00864652 -0.000396323 -0.0110608 0.000423 -0.00140487 -0.0313858 -0.020846 2650 
440 1 -0.00061 -0.000128329 -0.011485 4.2e-05 0 -0.011753 0 2650 
388 1 -0.00801618 0.000285972 -0.0112146 0.000116 0.0359769 -0.0242756 -0.0473873 2650 
2827 1 -0.001988 0.000108671 -0.011163 0.000116 0 -0.011753 0 2650 
2219 1 -0.00863946 0.000938537 -0.011165 0.000423 -0.00419955 0.0484068 -0.096263 2650 
3643 1 -0.00512324 0.000829422 -0.0116687 0.000423 -0.0276464 -0.00536394 0.0154079 2650 
4215 1 -0.011184 0.00198067 -0.011524 0.000423 0 -0.011753 0 2650 
2579 1 -0.008716 0.00199067 -0.011261 0.000423 0 -0.011753 0 2650 
1452 1 -0.00122232 0.0017808 -0.0111457 0.000423 0.00554637 -0.012591 0.0031522 2650 
3535 1 -9.9e-05 0.00228367 -0.011488 0.000423 0 -0.011753 0 2650 
2279 1 -0.011345 0.00254367 -0.01145 0.000116 0 -0.011753 0 2650 
3411 1 -0.0099139 0.00282074 -0.0112743 0.000656 0.0131942 0.0130309 0.0293002 2650 
3894 1 -0.005583 0.00304267 -0.011098 0.000116 0 -0.011753 0 2650 
3201 1 -0.00301479 0.00299417 -0.0111604 0.000423 -0.0605399 -0.0413426 -0.023818 2650 
1063 1 -0.009531 0.00359767 -0.011683 0.000116 0 -0.011753 0 2650 
3383 1 -0.011681 0.00459267 -0.011229 0.000116 0 -0.011753 0 2650 
1589 1 -0.0104203 0.00478887 -0.0113583 0.000423 -0.0647442 0.0335493 0.0762813 2650 
2294 1 -0.004894 0.00527867 -0.011565 0.000116 0 -0.011753 0 2650 
3542 1 -0.00378874 0.00482159 -0.0112638 0.000423 0.00241856 -0.00915467 -0.000529042 2650 
708 1 -0.00252 0.00547467 -0.011391 0.000423 0 -0.011753 0 2650 
878 1 -0.003908 0.00576167 -0.011202 4.2e-05 0 -0.011753 0 2650 
1215 1 -0.00991673 0.00676178 -0.0113678 0.000656 -0.0151247 -0.0120252 0.00241313 2650 
1822 1 -0.008034 0.00633167 -0.011166 0.000116 0 -0.011753 0 2650 
1584 1 -0.00411073 0.00639262 -0.0114015 0.000423 0.0377863 -0.0108548 -0.0614448 2650 
1758 1 -0.00201 0.00659267 -0.01144 4.2e-05 0 -0.011753 0 2650 
4027 1 -0.003218 0.00772367 -0.011075 0.000116 0 -0.011753 0 2650 
2409 1 -0.002586 0.00766267 -0.011527 4.2e-05 0 -0.011753 0 2650 
2913 1 -0.00401447 0.00834314 -0.0115556 0.000116 -0.028239 -0.0119827 -0.0130286 2650 
2798 1 -0.008755 0.00876267 -0.01131 0.000423 0 -0.011753 0 2650 
2777 1 -0.00606197 0.00920159 -0.0117772 0.000423 -0.0211573 0.049566 0.0339685 2650 
1617 1 -0.00424 0.00965167 -0.011492 0.000116 0 -0.011753 0 2650 
3684 1 -0.00481688 0.0108979 -0.0113029 0.000116 0.00413104 -0.0230128 -0.00941473 2650 
1663 1 -0.00972142 0.0120234 -0.011482 0.000423 -0.00585048 -0.0195656 0.00569326 2650 
3145 1 -0.006381 0.0121147 -0.011273 0.000116 0 -0.011753 0 2650 
2111 1 -0.00977416 0.0131311 -0.0112085 0.000423 -0.0245379 0.00505675 0.0232195 2650 
911 1 -0.00812537 0.0133899 -0.0115872 0.000423 -0.0526708 0.0464536 0.0089698 2650 
1143 1 -0.0016924 0.013158 -0.0118281 0.000423 0.00744219 0.00969658 -0.00437689 2650 
976 1 -0.005828 0.0134917 -0.011785 0.000116 0 -0.011753 0 2650 
3784 1 -0.0108902 0.014686 -0.0117609 0.000116 -0.0748727 0.0872127 -0.0809338 2650 
3294 1 -0.00760124 0.0396676 -0.0111859 0.000656 -0.0563035 0.49326 0.113749 2650 
78 1 -0.00699324 0.0449183 -0.0114941 0.000116 -0.223653 -0.604848 0.414357 2650 
2820 1 -0.007052 -0.00317033 -0.010962 0.000116 0 -0.011753 0 2650 
3265 1 -0.006001 -0.00318233 -0.010684 0.000116 0 -0.011753 0 2650 
3426 1 -0.00100545 -0.00243719 -0.0105858 0.000423 -0.00109119 -0.0119118 0.00171421 2650 
3603 1 -0.004768 -0.00182633 -0.010424 0.000116 0 -0.011753 0 2650 
4373 1 -0.004239 -0.00216433 -0.010869 4.2e-05 0 -0.011753 0 2650 
15 1 -0.001892 -0.00177333 -0.010407 0.000423 0 -0.011753 0 2650 
249 1 -0.0106924 -0.00121521 -0.0106462 0.000423 -0.040423 -0.0376941 0.0629075 2650 
939 1 -0.0029808 -0.000991667 -0.0104114 0.000116 -0.0723691 -0.0418117 0.00206409 2650 
450 1 -0.00684915 -0.000257136 -0.0104956 0.000656 0.0173824 0.0194182 -0.108349 2650 
3093 1 -0.00289016 -0.000530442 -0.0107858 0.000423 -0.000507804 -0.0100552 -0.00167569 2650 
1774 1 -0.00169492 -0.00010521 -0.0105701 0.000423 0.00675441 0.0764637 -0.112062 2650 
2130 1 -0.000316 -0.000709329 -0.010491 0.000423 0 -0.011753 0 2650 
1193 1 -4.3e-05 -0.000143329 -0.010628 0.000116 0 -0.011753 0 2650 
2022 1 -0.00567914 6.40633e-05 -0.0110502 0.000423 -0.025362 0.0209777 0.00742457 2650 
2542 1 -0.005905 0.000659671 -0.010347 0.000423 0 -0.011753 0 2650 
3673 1 -0.00272 0.000320671 -0.010833 0.000423 0 -0.011753 0 2650 
3284 1 -0.001323 0.000345671 -0.010635 4.2e-05 0 -0.011753 0 2650 
3530 1 -0.000573 0.000815671 -0.010526 0.000423 0 -0.011753 0 2650 
1233 1 -0.012882 0.00197467 -0.010287 0.000423 0 -0.011753 0 2650 
497 1 -0.00574 0.00296867 -0.010398 0.000116 0 -0.011753 0 2650 
124 1 -0.005032 0.00287367 -0.01051 0.000423 0 -0.011753 0 2650 
1192 1 -0.004051 0.00319267 -0.010435 0.000116 0 -0.011753 0 2650 
3223 1 -0.0107434 0.00399456 -0.0107225 0.000423 -0.0120555 0.0292219 0.0276155 2650 
2912 1 -0.006578 0.00513567 -0.010859 0.000116 0 -0.011753 0 2650 
3787 1 -0.006362 0.00557167 -0.010668 0.000116 0 -0.011753 0 2650 
760 1 -0.006943 0.00590867 -0.010573 4.2e-05 0 -0.011753 0 2650 
861 1 -0.006339 0.00608267 -0.010358 0.000116 0 -0.011753 0 2650 
2326 1 -0.0116923 0.00689852 -0.0104271 0.000423 0.00654137 0.0113769 0.0231902 2650 
2500 1 -0.010648 0.00745767 -0.010771 0.000116 0 -0.011753 0 2650 
4166 1 -0.00422316 0.00755414 -0.0105489 0.000656 -0.000473877 -0.0124048 -0.000834416 2650 
2948 1 -0.002008 0.00727467 -0.010384 0.000116 0 -0.011753 0 2650 
2789 1 -0.00140621 0.00766934 -0.0102915 0.000423 0.0540452 -0.0229939 -0.0675585 2650 
4066 1 -0.00645645 0.00851187 -0.0108985 0.000656 -0.00806035 0.00608947 0.031678 2650 
3727 1 -0.004412 0.00821267 -0.010287 4.2e-05 0 -0.011753 0 2650 
3456 1 -0.00348376 0.0083348 -0.0108099 0.000423 -0.000997028 -0.0111859 -0.00366568 2650 
1935 1 -0.0053363 0.00876775 -0.0106706 0.000116 -0.0496311 0.00727001 0.00060962 2650 
1010 1 -0.0124061 0.00995646 -0.0108082 0.000423 -0.098653 0.0526543 0.012571 2650 
2097 1 -0.00889 0.0100267 -0.010395 0.000656 0 -0.011753 0 2650 
3132 1 -0.007716 0.00953367 -0.01033 0.000116 0 -0.011753 0 2650 
89 1 -0.003936 0.0100787 -0.010466 0.000116 0 -0.011753 0 2650 
2759 1 -0.011495 0.0110267 -0.010915 0.000656 0 -0.011753 0 2650 
1376 1 -0.009927 0.0107727 -0.010971 0.000116 0 -0.011753 0 2650 
2260 1 -0.008542 0.0117447 -0.010892 0.000116 0 -0.011753 0 2650 
2261 1 -0.007381 0.0111237 -0.010514 0.000116 0 -0.011753 0 2650 
233 1 -0.00496401 0.0113506 -0.0110335 0.000423 0.00253467 -0.0140185 -0.0192435 2650 
4167 1 -0.003538 0.0114667 -0.010916 0.000656 0 -0.011753 0 2650 
499 1 -0.011613 0.0124947 -0.010379 0.000116 0 -0.011753 0 2650 
1754 1 -0.008854 0.0126007 -0.010611 4.2e-05 0 -0.011753 0 2650 
1802 1 -0.00454643 0.0122834 -0.0104896 0.000423 0.00588614 -0.0012339 -0.0133873 2650 
1913 1 -0.00824196 0.0127056 -0.010872 0.000423 -0.0084077 -0.0163635 0.0130107 2650 
3595 1 -0.007357 0.0133037 -0.010628 0.000116 0 -0.011753 0 2650 
3767 1 -0.006013 0.0132197 -0.010843 0.000423 0 -0.011753 0 2650 
3899 1 -0.00429085 0.0128048 -0.0104877 0.000116 0.00741193 0.00259205 -0.00468292 2650 
963 1 -0.000669 0.0132827 -0.010387 0.000116 0 -0.011753 0 2650 
1346 1 -0.00109377 0.0165343 -0.0103002 0.000423 0.0112383 0.146251 0.0960885 2650 
3933 1 -0.006596 -0.00246333 -0.009623 0.000116 0 -0.011753 0 2650 
4285 1 -0.0120058 -0.00187742 -0.00978379 0.000423 0.0347157 0.0357807 0.0965453 2650 
2848 1 -0.010604 -0.00129867 -0.0100735 4.2e-05 -0.0188445 -0.0333099 0.0794967 2650 
417 1 -0.004944 -0.00109733 -0.009884 0.000116 0 -0.011753 0 2650 
1630 1 -0.00227 -0.00134233 -0.00958 0.000116 0 -0.011753 0 2650 
4306 1 -0.0129148 -0.000576411 -0.00996947 0.000423 0.00147262 -0.0100779 0.021941 2650 
3460 1 -0.0132781 0.000287292 -0.0096349 0.000116 -0.0168758 0.0338595 0.0274825 2650 
2778 1 -0.0127329 0.000443795 -0.00957 0.000423 -0.0280671 0.0334565 0.0247291 2650 
1562 1 -0.00219038 0.000513719 -0.0101354 0.000423 -0.0269734 0.0352522 0.0101284 2650 