ITEM: TIMESTEP
907032
ITEM: NUMBER OF ATOMS
4382
ITEM: BOX BOUNDS ff ff ff
-0.15 0.15
-0.15 0.06
-0.15 0.15
ITEM: ATOMS id type x y z radius vx vy vz density 
741 1 -0.0317954 -0.0609532 -0.0611067 0.000116 -3.52222 0.113019 1.84612 2650 
1845 1 -0.0485127 -0.0607294 -0.0488926 0.000116 -2.03488 0.105966 1.84397 2650 
3143 1 -0.0524065 -0.0539437 -0.0446965 0.000116 -2.12783 -1.52111 2.39758 2650 
3810 1 -0.0688101 -0.0522477 -0.00318345 0.000116 -0.159424 0.00390337 3.80591 2650 
2964 1 -0.00110186 -0.0388887 -0.0689438 4.2e-05 -1.43577 -1.94385 -0.0928373 2650 
1957 1 -0.0129802 -0.00423119 -0.0653142 0.000116 -2.63812 -0.0924837 2.44101 2650 
4187 1 -0.0153723 -0.014163 -0.0640954 0.000423 -2.56118 -0.658883 1.65446 2650 
1760 1 -0.0297941 -0.0360455 -0.062189 4.2e-05 -5.09254 1.87185 2.43805 2650 
4353 1 -0.0373341 -0.0111632 -0.0577727 0.000116 -3.37255 -0.176281 1.12221 2650 
821 1 -0.0333256 -0.00666537 -0.0567984 0.000423 -1.98211 -0.181241 2.19923 2650 
2806 1 -0.0172172 -0.00746854 -0.0564664 0.000116 -2.68675 -0.339751 -8.56886 2650 
734 1 -0.0397702 -0.0138985 -0.055917 0.000116 -2.34787 -0.331993 2.25041 2650 
3330 1 -0.0452838 -0.011726 -0.0514931 0.000423 -2.83582 0.156705 2.27512 2650 
1270 1 -0.0455344 -0.000955903 -0.0516878 0.000116 -4.06961 -0.566241 3.55446 2650 
2317 1 -0.047846 -0.0255439 -0.048804 0.000656 -2.79629 -0.734145 2.77604 2650 
152 1 -0.0510221 -0.0145708 -0.0443944 0.000423 -8.00765 -0.49911 -7.02594 2650 
208 1 -0.0576723 -0.0130825 -0.03767 0.000116 -1.87631 -0.421184 2.90178 2650 
843 1 -0.0595838 -0.0161067 -0.0345617 0.000116 -1.55418 -0.539333 2.82004 2650 
4133 1 -0.0578173 -0.0211466 -0.031246 0.000116 -0.858139 -0.632897 3.07567 2650 
1818 1 -0.0178191 -0.00396537 -0.0302244 0.000116 -2.7052 -0.0909202 -4.58849 2650 
4372 1 -0.00828842 -0.00908918 -0.029232 4.2e-05 -1.20645 -0.645029 -4.45653 2650 
3329 1 -0.000348412 -0.0069361 -0.0256708 0.000423 -0.0392338 -0.649327 -3.10665 2650 
355 1 -0.0643577 -0.0126275 -0.0232566 0.000423 -2.43363 -0.202107 2.50609 2650 
691 1 -0.00175291 -0.00492276 -0.0216316 0.000423 -0.185463 -0.285843 -2.22286 2650 
3875 1 -0.0224248 -0.00477229 -0.0181448 0.000423 -3.27825 -0.179135 -2.55874 2650 
606 1 -0.000183 0.00503867 -0.016592 0.000116 0 -0.011753 0 2650 
2713 1 -0.000763 0.0120097 -0.016767 0.000116 0 -0.011753 0 2650 
4116 1 -0.004072 -0.000618331 -0.016193 0.000116 0 -0.011753 0 2650 
93 1 -0.00354 -0.000207331 -0.016299 0.000116 0 -0.011753 0 2650 
1991 1 -0.002768 0.00137167 -0.01599 0.000656 0 -0.011753 0 2650 
736 1 -0.003429 0.00296367 -0.016474 0.000116 0 -0.011753 0 2650 
3645 1 -0.00146673 0.00356258 -0.0158123 0.000423 -0.018024 0.00762956 0.0274716 2650 
2013 1 -0.003166 0.00414267 -0.016002 0.000423 0 -0.011753 0 2650 
3546 1 -0.002797 0.00610067 -0.016252 0.000423 0 -0.011753 0 2650 
2301 1 -0.004222 0.00681167 -0.016305 4.2e-05 0 -0.011753 0 2650 
188 1 -0.00068 0.00658067 -0.016516 0.000116 0 -0.011753 0 2650 
3616 1 -0.000938 0.00737567 -0.016074 4.2e-05 0 -0.011753 0 2650 
728 1 -0.00338587 0.00987065 -0.0161296 0.000116 -0.0650853 0.147179 0.0609561 2650 
3934 1 -0.001977 0.00980067 -0.016218 0.000116 0 -0.011753 0 2650 
1357 1 -0.00396021 0.0130354 -0.0160106 0.000423 -0.0794229 0.17012 0.00126557 2650 
634 1 -0.0668284 -0.0296283 -0.0155003 0.000116 -0.253101 -0.994283 3.39108 2650 
3441 1 -0.005522 -0.00228433 -0.01502 0.000423 0 -0.011753 0 2650 
3733 1 -0.00245176 -0.000823193 -0.0153306 0.000656 -0.00903733 0.00595212 -0.0173299 2650 
330 1 -0.001698 -0.000943331 -0.015557 4.2e-05 0 -0.011753 0 2650 
2965 1 -2.2e-05 -0.000637331 -0.015341 4.2e-05 0 -0.011753 0 2650 
1679 1 -0.00361985 0.0036821 -0.0154168 0.000423 0.00305589 -0.00234253 -0.00398464 2650 
3147 1 -0.00177934 0.00448311 -0.015029 0.000116 -0.00706837 0.0221131 0.0132401 2650 
3789 1 -0.00188056 0.00455071 -0.0156554 0.000116 0.0751661 -0.205537 -0.0399781 2650 
4165 1 -0.00570579 0.00505683 -0.0151979 0.000656 0.00622358 0.0106794 0.0127596 2650 
2399 1 -0.002418 0.00525267 -0.015541 0.000116 0 -0.011753 0 2650 
3322 1 -0.00439248 0.00570502 -0.0153527 0.000423 -0.0209456 -0.0191109 -0.033031 2650 
4296 1 -0.00156966 0.00581764 -0.0155509 0.000423 -0.000356005 -0.0132873 -0.00240934 2650 
2701 1 -0.00357543 0.00692347 -0.0150511 0.000116 0.0331549 0.247236 -0.00676049 2650 
1986 1 -0.00415126 0.00740334 -0.0156759 0.000656 0.00762539 0.0149956 0.0116892 2650 
2969 1 -0.001381 0.00782267 -0.015354 0.000656 0 -0.011753 0 2650 
978 1 -0.005372 0.00849867 -0.015286 0.000116 0 -0.011753 0 2650 
3177 1 -0.001068 0.0108567 -0.015412 4.2e-05 0 -0.011753 0 2650 
3830 1 -0.006879 0.0113527 -0.015411 4.2e-05 0 -0.011753 0 2650 
86 1 -0.002064 0.0110567 -0.015055 0.000116 0 -0.011753 0 2650 
884 1 -0.00473841 0.0122286 -0.0155082 0.000656 -0.0291238 0.0251675 0.0345608 2650 
938 1 -0.000869 0.0122627 -0.015416 0.000116 0 -0.011753 0 2650 
3632 1 -0.006134 0.0129787 -0.015144 0.000423 0 -0.011753 0 2650 
947 1 -0.0254697 -0.00677123 -0.014808 0.000116 -3.30208 -0.448871 -1.90414 2650 
3918 1 -0.0154424 -0.00419346 -0.0144919 0.000116 -2.13451 -0.129438 -1.99006 2650 
2256 1 -0.001753 -0.00283333 -0.014775 0.000116 0 -0.011753 0 2650 
747 1 -0.001416 -0.00281333 -0.014317 0.000116 0 -0.011753 0 2650 
3295 1 -0.00224839 -0.00209972 -0.0147718 0.000656 -0.0259609 -0.0460209 -0.0625831 2650 
3502 1 -0.001236 -0.00183833 -0.014816 4.2e-05 0 -0.011753 0 2650 
3303 1 -0.00671036 -0.00100807 -0.014421 0.000656 -0.0119966 -0.0726635 -0.0251966 2650 
1640 1 -0.001358 -0.000505331 -0.014495 4.2e-05 0 -0.011753 0 2650 
2313 1 -0.005044 0.000338669 -0.014923 0.000656 0 -0.011753 0 2650 
2413 1 -0.003433 0.000176669 -0.014868 4.2e-05 0 -0.011753 0 2650 
1053 1 -0.007469 0.00141067 -0.014946 0.000116 0 -0.011753 0 2650 
2332 1 -0.003268 0.00170167 -0.014853 0.000423 0 -0.011753 0 2650 
3239 1 -0.002155 0.00162067 -0.014442 0.000116 0 -0.011753 0 2650 
1569 1 -0.00182816 0.00381703 -0.014917 0.000423 -0.0214881 0.00570095 0.0411068 2650 
2547 1 -0.00734476 0.00406079 -0.0145148 0.000423 -0.044095 0.0528746 0.0464883 2650 
1059 1 -0.0066588 0.00454698 -0.014374 0.000116 -0.00683586 -0.0187509 0.0600761 2650 
1219 1 -0.00456579 0.00437617 -0.0142858 0.000656 0.035204 0.0225104 -0.0281999 2650 
220 1 -0.003649 0.00431567 -0.014897 4.2e-05 0 -0.011753 0 2650 
104 1 -0.00218 0.00456467 -0.014554 4.2e-05 0 -0.011753 0 2650 
3121 1 -0.007407 0.00513467 -0.014654 0.000423 0 -0.011753 0 2650 
3564 1 -0.000147 0.00704167 -0.014738 0.000423 0 -0.011753 0 2650 
2438 1 -0.005612 0.00761367 -0.014612 0.000423 0 -0.011753 0 2650 
3365 1 -0.002315 0.00767867 -0.014552 0.000116 0 -0.011753 0 2650 
713 1 -0.00445605 0.00863724 -0.0144755 0.000423 -0.0333908 0.0368981 0.0147375 2650 
4190 1 -0.007319 0.00934867 -0.014559 0.000423 0 -0.011753 0 2650 
3515 1 -0.00476298 0.00969491 -0.0147796 0.000656 -0.002104 -0.0107719 -0.00140178 2650 
2250 1 -0.00343883 0.0102818 -0.014899 0.000423 -0.155375 0.0227889 0.0380727 2650 
371 1 -0.00050894 0.0109531 -0.0142469 0.000423 -0.000508818 -0.00613125 -0.00679769 2650 
1228 1 -0.001302 0.0111337 -0.014946 0.000423 0 -0.011753 0 2650 
3294 1 -0.00600599 0.0256921 -0.0144087 0.000656 -0.0563035 0.49326 0.113749 2650 
1943 1 -0.002925 -0.00328733 -0.01374 0.000116 0 -0.011753 0 2650 
3229 1 -0.006614 -0.00271533 -0.01374 0.000423 0 -0.011753 0 2650 
327 1 -0.003849 -0.00259533 -0.013874 4.2e-05 0 -0.011753 0 2650 
2705 1 -0.001432 -0.00277633 -0.013674 0.000116 0 -0.011753 0 2650 
2939 1 -0.008405 -0.00179233 -0.013483 0.000116 0 -0.011753 0 2650 
3622 1 -0.00548909 -0.00219367 -0.013525 0.000656 0.00467838 -0.0472728 -0.0117267 2650 
1393 1 -0.009523 -0.00148833 -0.013534 0.000116 0 -0.011753 0 2650 
2783 1 -0.003328 -0.000453331 -0.013758 0.000423 0 -0.011753 0 2650 
4126 1 -0.001667 -0.000380331 -0.013741 0.000116 0 -0.011753 0 2650 
3778 1 -0.003893 0.00106367 -0.013816 0.000423 0 -0.011753 0 2650 
1620 1 -0.008456 0.00308267 -0.013856 0.000116 0 -0.011753 0 2650 
1589 1 -0.00858586 0.00383832 -0.0135196 0.000423 -0.0647442 0.0335493 0.0762813 2650 
2485 1 -0.00662675 0.00468866 -0.0141922 0.000116 0.00399842 0.0209962 0.0466364 2650 
3587 1 -0.006279 0.00433967 -0.013694 0.000116 0 -0.011753 0 2650 
1288 1 -0.002467 0.00898167 -0.014044 0.000116 0 -0.011753 0 2650 
1974 1 -0.0021 0.00970267 -0.01365 4.2e-05 0 -0.011753 0 2650 
171 1 -0.001998 0.00960367 -0.013459 0.000116 0 -0.011753 0 2650 
2222 1 -0.000169 0.00961067 -0.014111 0.000423 0 -0.011753 0 2650 
581 1 -0.005568 0.0105027 -0.014167 0.000423 0 -0.011753 0 2650 
1476 1 -0.006941 0.0117817 -0.013435 0.000423 0 -0.011753 0 2650 
3669 1 -0.000597 0.0118877 -0.014068 0.000423 0 -0.011753 0 2650 
1409 1 -0.00044 0.0127617 -0.013868 0.000116 0 -0.011753 0 2650 
3588 1 -0.00497769 0.0209981 -0.0136169 0.000116 0.500572 0.21911 0.239725 2650 
428 1 -0.00922 -0.00274633 -0.013206 0.000116 0 -0.011753 0 2650 
3015 1 -0.008364 -0.00280133 -0.013043 0.000423 0 -0.011753 0 2650 
827 1 -0.005975 -0.00291933 -0.013005 0.000116 0 -0.011753 0 2650 
167 1 -0.004273 -0.00276133 -0.012826 0.000116 0 -0.011753 0 2650 
2732 1 -0.002992 -0.00282633 -0.013183 0.000116 0 -0.011753 0 2650 
3633 1 -0.00941 -0.00222233 -0.013111 0.000423 0 -0.011753 0 2650 
2685 1 -0.00756295 -0.00181903 -0.0127828 0.000423 -0.0443677 -0.0522862 0.0323329 2650 
1487 1 -0.004643 -0.00235233 -0.013241 0.000116 0 -0.011753 0 2650 
4056 1 -0.00518126 -0.000847604 -0.0131549 0.000656 0.0589984 -0.0321199 -0.018168 2650 
1924 1 -0.0103346 -0.000587403 -0.0127962 0.000423 3.99817e-05 -0.053411 0.039122 2650 
3551 1 -0.005293 0.00112267 -0.013215 0.000423 0 -0.011753 0 2650 
1125 1 -0.000165 0.00170967 -0.013134 0.000423 0 -0.011753 0 2650 
4371 1 -0.000719 0.00252067 -0.012831 0.000116 0 -0.011753 0 2650 
2283 1 -0.000701 0.00283567 -0.012847 0.000116 0 -0.011753 0 2650 
1595 1 -0.007474 0.00386667 -0.012756 0.000423 0 -0.011753 0 2650 
2525 1 -0.004063 0.00320867 -0.013231 4.2e-05 0 -0.011753 0 2650 
2253 1 -0.00367062 0.00385775 -0.0126598 0.000423 0.0920831 0.035812 0.016033 2650 
2619 1 -0.005851 0.00402467 -0.012854 0.000116 0 -0.011753 0 2650 
3880 1 -0.010277 0.00494067 -0.012913 0.000423 0 -0.011753 0 2650 
2609 1 -0.00886 0.00474867 -0.013248 0.000116 0 -0.011753 0 2650 
3917 1 -0.003984 0.00550967 -0.012703 0.000116 0 -0.011753 0 2650 
2194 1 -0.002781 0.00516267 -0.012701 4.2e-05 0 -0.011753 0 2650 
2763 1 -0.00145124 0.0050385 -0.0129874 0.000423 0.119007 -0.206658 0.149114 2650 
933 1 -0.0094609 0.00574696 -0.0131158 0.000423 -0.205621 0.0138782 0.00393424 2650 
2918 1 -0.00757 0.00609967 -0.012948 0.000116 0 -0.011753 0 2650 
2059 1 -0.003583 0.00571867 -0.012756 0.000116 0 -0.011753 0 2650 
4241 1 -0.00115094 0.005629 -0.0129544 0.000116 0.0418184 0.0132573 0.0231045 2650 
3035 1 -0.00991383 0.00771455 -0.0133357 0.000116 -0.147222 0.0631952 0.172039 2650 
1327 1 -0.00871004 0.00761644 -0.0133208 0.000656 -0.100026 0.0733137 0.147855 2650 
4078 1 -0.00610984 0.00771063 -0.012902 0.000423 0.00523349 0.00134176 -0.00166274 2650 
2322 1 -0.00695062 0.00832808 -0.013392 0.000656 -0.00732336 -0.00366906 -0.00588437 2650 
2777 1 -0.00508355 0.00796342 -0.0132159 0.000423 -0.0600041 0.0325706 0.0604979 2650 
1427 1 -0.002948 0.00804967 -0.013376 4.2e-05 0 -0.011753 0 2650 
3259 1 -0.008055 0.00911467 -0.013388 0.000116 0 -0.011753 0 2650 
4318 1 -0.00772592 0.00882383 -0.0128015 0.000423 -0.00589465 -0.00768269 0.00318441 2650 
1795 1 -0.008775 0.0100487 -0.012959 0.000423 0 -0.011753 0 2650 
1769 1 -0.004822 0.00996967 -0.013243 0.000656 0 -0.011753 0 2650 
205 1 -0.000744 0.0107657 -0.01334 0.000116 0 -0.011753 0 2650 
4314 1 -0.00338238 0.0114051 -0.0133813 0.000423 -0.092085 0.0376702 0.0423056 2650 
1346 1 -0.00141219 0.0123905 -0.0130227 0.000423 0.0112383 0.146251 0.0960885 2650 
4160 1 -0.006657 0.0131317 -0.013271 4.2e-05 0 -0.011753 0 2650 
1775 1 -0.008218 0.0134407 -0.012996 0.000423 0 -0.011753 0 2650 
3644 1 -0.000733 0.0134367 -0.013392 0.000423 0 -0.011753 0 2650 
2618 1 -0.00107711 -0.0054263 -0.0120133 0.000116 -0.0855968 -0.361481 -1.47756 2650 
2224 1 -0.00683874 -0.00384154 -0.0122717 0.000423 -0.761092 -0.127742 -1.26994 2650 
2957 1 -0.010592 -0.00254233 -0.012102 4.2e-05 0 -0.011753 0 2650 
2238 1 -0.00696194 -0.00242645 -0.012485 0.000423 0.0131625 -0.0386301 0.0150545 2650 
4068 1 -0.001953 -0.00306033 -0.012327 0.000423 0 -0.011753 0 2650 
868 1 -0.000201 -0.00259233 -0.012301 0.000116 0 -0.011753 0 2650 
3200 1 -0.00616235 -0.00188387 -0.0124062 0.000423 -0.0037223 -0.0499527 0.010669 2650 
3385 1 -0.00219616 -0.00218708 -0.0122506 0.000116 0.210455 -0.166631 -0.035107 2650 
4150 1 -0.001319 -0.00221733 -0.012208 0.000116 0 -0.011753 0 2650 
3261 1 -0.010456 -0.00136833 -0.012294 0.000116 0 -0.011753 0 2650 
249 1 -0.00954673 -0.000146793 -0.0124301 0.000423 -0.0404414 -0.0377152 0.0629853 2650 
2819 1 -0.007468 -0.000232331 -0.012046 0.000116 0 -0.011753 0 2650 
2468 1 -0.003167 -0.000393331 -0.012131 0.000423 0 -0.011753 0 2650 
545 1 -0.002328 -0.000766331 -0.012432 4.2e-05 0 -0.011753 0 2650 
1763 1 -0.001143 -0.000105331 -0.012442 0.000656 0 -0.011753 0 2650 
950 1 -0.010031 0.000499669 -0.011866 0.000116 0 -0.011753 0 2650 
1901 1 -0.0035347 0.000755853 -0.0123043 0.000423 -0.0220801 -0.0570589 0.0406976 2650 
3643 1 -0.00433993 0.000981398 -0.0121053 0.000423 -0.0276464 -0.00536394 0.0154079 2650 
3637 1 -0.002026 0.00107367 -0.012108 0.000423 0 -0.011753 0 2650 
3411 1 -0.0103104 0.00233337 -0.0122604 0.000656 0.0140632 0.0288977 0.0473557 2650 
623 1 -0.005429 0.00224767 -0.012246 0.000116 0 -0.011753 0 2650 
1422 1 -0.003881 0.00174067 -0.012349 4.2e-05 0 -0.011753 0 2650 
1799 1 -0.003237 0.00255567 -0.012061 0.000423 0 -0.011753 0 2650 
2293 1 -0.00155951 0.002849 -0.0122855 0.000116 0.0416688 0.071753 -0.100968 2650 
2813 1 -1e-05 0.00240767 -0.012237 0.000116 0 -0.011753 0 2650 
3956 1 -0.008956 0.00332667 -0.012273 0.000656 0 -0.011753 0 2650 
2690 1 -0.000333 0.00317867 -0.012265 0.000423 0 -0.011753 0 2650 
3389 1 -0.010415 0.00400667 -0.012026 0.000116 0 -0.011753 0 2650 
856 1 -0.00389 0.00422567 -0.0119 0.000116 0 -0.011753 0 2650 
1657 1 -0.00864189 0.00520667 -0.0120338 0.000656 -0.00770092 -0.0112608 -0.00233815 2650 
411 1 -0.009436 0.00567467 -0.012079 0.000116 0 -0.011753 0 2650 
3826 1 -0.009208 0.00590167 -0.012552 0.000116 0 -0.011753 0 2650 
3316 1 -0.008979 0.00665467 -0.012376 0.000423 0 -0.011753 0 2650 
1261 1 -0.007462 0.00655867 -0.012403 0.000423 0 -0.011753 0 2650 
3362 1 -0.002672 0.00666767 -0.012199 0.000116 0 -0.011753 0 2650 
1590 1 -0.008874 0.00784867 -0.012037 0.000423 0 -0.011753 0 2650 
3446 1 -0.002592 0.00766167 -0.012627 0.000423 0 -0.011753 0 2650 
3030 1 -0.001189 0.00816467 -0.012596 0.000116 0 -0.011753 0 2650 
70 1 -0.010029 0.00908967 -0.01242 0.000116 0 -0.011753 0 2650 
191 1 -0.011348 0.00948567 -0.012254 0.000116 0 -0.011753 0 2650 
3847 1 -0.009739 0.0100867 -0.012406 0.000656 0 -0.011753 0 2650 
1495 1 -0.004483 0.00963267 -0.012591 0.000116 0 -0.011753 0 2650 
1381 1 -0.00345167 0.00985851 -0.0122058 0.000116 -0.123304 0.190039 -0.120274 2650 
3106 1 -0.00162768 0.00954582 -0.0119701 0.000423 -0.088686 0.0945675 -0.260408 2650 
2596 1 -0.00108763 0.0101736 -0.0121702 0.000116 0.0372385 0.167955 -0.209269 2650 
1250 1 -0.007399 0.0108117 -0.012448 0.000423 0 -0.011753 0 2650 
3173 1 -0.004958 0.0102937 -0.012321 4.2e-05 0 -0.011753 0 2650 
2109 1 -0.001932 0.0104327 -0.012277 0.000423 0 -0.011753 0 2650 
2630 1 -0.001036 0.0105017 -0.012074 4.2e-05 0 -0.011753 0 2650 
4002 1 -0.000443 0.0103257 -0.01223 0.000116 0 -0.011753 0 2650 
65 1 -0.009488 0.0117067 -0.011959 0.000116 0 -0.011753 0 2650 
911 1 -0.00579416 0.0120476 -0.012155 0.000423 -0.153272 0.0598619 0.0257807 2650 
1423 1 -0.00145 0.0119817 -0.012526 4.2e-05 0 -0.011753 0 2650 
2483 1 -0.008006 0.0128637 -0.012441 0.000116 0 -0.011753 0 2650 
1578 1 -0.007713 0.0127027 -0.011972 0.000423 0 -0.011753 0 2650 
2205 1 -0.00482099 0.0131516 -0.0123376 0.000656 0.000183776 -0.0119531 -0.000657984 2650 
1900 1 -0.00382114 0.0131363 -0.01191 0.000423 -0.0355934 0.197623 0.0655201 2650 
4365 1 -0.00417969 0.0141754 -0.0119057 0.000116 -0.0372545 0.279327 0.100572 2650 
1826 1 -0.00349818 0.0159024 -0.0120688 0.000116 0.269854 0.44368 -0.0816137 2650 
2722 1 -0.0110739 0.0233985 -0.0119602 0.000116 -0.0715147 0.365051 0.247857 2650 
1239 1 -0.00427514 -0.00344469 -0.0111878 0.000423 -0.39562 -0.0474347 -1.02373 2650 
704 1 -0.01034 -0.00301333 -0.011479 0.000423 0 -0.011753 0 2650 
3999 1 -0.005715 -0.00285733 -0.011742 0.000423 0 -0.011753 0 2650 
3679 1 -0.012092 -0.00205533 -0.011604 0.000116 0 -0.011753 0 2650 
2072 1 -0.009308 -0.00219333 -0.011721 0.000116 0 -0.011753 0 2650 
3505 1 -0.006952 -0.00109733 -0.011235 4.2e-05 0 -0.011753 0 2650 
3191 1 -0.00437275 -0.00140438 -0.0114947 0.000656 -0.0442695 0.00235925 -0.00260127 2650 
1022 1 -0.002093 -0.00122733 -0.011454 0.000423 0 -0.011753 0 2650 
123 1 -0.0108622 -0.00054507 -0.0112499 0.000423 -0.0212637 -0.0293113 -0.00580498 2650 
2166 1 -0.009005 -0.000687331 -0.011549 0.000116 0 -0.011753 0 2650 
2022 1 -0.00496056 -0.000530298 -0.0112605 0.000423 -0.025362 0.0209777 0.00742457 2650 
2827 1 -0.001988 0.000441669 -0.011163 0.000116 0 -0.011753 0 2650 
440 1 -0.00061 0.000204669 -0.011485 4.2e-05 0 -0.011753 0 2650 
4215 1 -0.011184 0.00231367 -0.011524 0.000423 0 -0.011753 0 2650 
2579 1 -0.008716 0.00232367 -0.011261 0.000423 0 -0.011753 0 2650 
1452 1 -0.00137947 0.00213754 -0.011235 0.000423 0.00554637 -0.012591 0.0031522 2650 
2279 1 -0.011345 0.00287667 -0.01145 0.000116 0 -0.011753 0 2650 
3535 1 -9.9e-05 0.00261667 -0.011488 0.000423 0 -0.011753 0 2650 
3223 1 -0.010476 0.00341867 -0.011335 0.000423 0 -0.011753 0 2650 
1063 1 -0.009531 0.00393067 -0.011683 0.000116 0 -0.011753 0 2650 
3894 1 -0.005583 0.00337567 -0.011098 0.000116 0 -0.011753 0 2650 
3201 1 -0.00292536 0.00363197 -0.0114077 0.000423 0.0982966 0.0107837 0.0662699 2650 
3383 1 -0.011681 0.00492567 -0.011229 0.000116 0 -0.011753 0 2650 
3542 1 -0.003838 0.00510167 -0.011253 0.000423 0 -0.011753 0 2650 
2471 1 -0.00776382 0.00580733 -0.011555 0.000423 -0.0907234 0.0202287 0.0449903 2650 
2294 1 -0.004894 0.00561167 -0.011565 0.000116 0 -0.011753 0 2650 
878 1 -0.003908 0.00609467 -0.011202 4.2e-05 0 -0.011753 0 2650 
708 1 -0.00252 0.00580767 -0.011391 0.000423 0 -0.011753 0 2650 
1822 1 -0.008034 0.00666467 -0.011166 0.000116 0 -0.011753 0 2650 
234 1 -0.004437 0.00663767 -0.011677 0.000423 0 -0.011753 0 2650 
1758 1 -0.00201 0.00692567 -0.01144 4.2e-05 0 -0.011753 0 2650 
1215 1 -0.009596 0.00721867 -0.01151 0.000656 0 -0.011753 0 2650 
222 1 -0.00127116 0.00778751 -0.0113054 0.000656 -0.00297797 -0.0641339 -0.0320517 2650 
4066 1 -0.00630153 0.00830707 -0.0116717 0.000656 -0.00432864 0.007729 0.025362 2650 
4027 1 -0.003218 0.00805667 -0.011075 0.000116 0 -0.011753 0 2650 
2409 1 -0.002586 0.00799567 -0.011527 4.2e-05 0 -0.011753 0 2650 
2798 1 -0.008755 0.00909567 -0.01131 0.000423 0 -0.011753 0 2650 
2913 1 -0.00317295 0.00869263 -0.0113406 0.000116 -0.0362513 -0.0139142 0.0167742 2650 
1617 1 -0.00424 0.00998467 -0.011492 0.000116 0 -0.011753 0 2650 
3684 1 -0.00483 0.0112667 -0.011273 0.000116 0 -0.011753 0 2650 
1663 1 -0.009704 0.0123797 -0.011499 0.000423 0 -0.011753 0 2650 
3145 1 -0.006381 0.0124477 -0.011273 0.000116 0 -0.011753 0 2650 
2111 1 -0.009632 0.0133667 -0.011343 0.000423 0 -0.011753 0 2650 
1143 1 -0.00190326 0.0128832 -0.0117041 0.000423 0.00744219 0.00969658 -0.00437689 2650 
976 1 -0.005828 0.0138247 -0.011785 0.000116 0 -0.011753 0 2650 
2578 1 -0.0338343 -0.00870486 -0.0107512 0.000423 -4.79619 -0.580305 -1.41111 2650 
2820 1 -0.007052 -0.00283733 -0.010962 0.000116 0 -0.011753 0 2650 
3265 1 -0.006001 -0.00284933 -0.010684 0.000116 0 -0.011753 0 2650 
4373 1 -0.004239 -0.00183133 -0.010869 4.2e-05 0 -0.011753 0 2650 
3426 1 -0.000992 -0.00209133 -0.010574 0.000423 0 -0.011753 0 2650 
2848 1 -0.010456 -0.000796331 -0.010698 4.2e-05 0 -0.011753 0 2650 
3640 1 -0.00960457 -0.000825095 -0.0106778 0.000423 0.0106565 -0.0526658 0.0459604 2650 
3603 1 -0.004768 -0.00149333 -0.010424 0.000116 0 -0.011753 0 2650 
15 1 -0.001892 -0.00144033 -0.010407 0.000423 0 -0.011753 0 2650 
3093 1 -0.002889 -0.000201331 -0.010782 0.000423 0 -0.011753 0 2650 
2130 1 -0.000316 -0.000376331 -0.010491 0.000423 0 -0.011753 0 2650 
250 1 -0.0102831 2.85513e-07 -0.0109372 0.000423 -0.0748122 -0.00784325 0.110777 2650 
3960 1 -0.008634 0.000111669 -0.010875 0.000423 0 -0.011753 0 2650 
388 1 -0.008271 0.000707669 -0.010879 0.000116 0 -0.011753 0 2650 
3673 1 -0.00272 0.000653669 -0.010833 0.000423 0 -0.011753 0 2650 
3284 1 -0.001323 0.000678669 -0.010635 4.2e-05 0 -0.011753 0 2650 
1193 1 -4.3e-05 0.000189669 -0.010628 0.000116 0 -0.011753 0 2650 
3866 1 -0.011939 0.00116567 -0.01034 0.000423 0 -0.011753 0 2650 
3311 1 -0.0104444 0.00080288 -0.0106958 0.000423 -0.114755 -0.00811345 0.0786905 2650 
2542 1 -0.005905 0.000992669 -0.010347 0.000423 0 -0.011753 0 2650 
3530 1 -0.000573 0.00114867 -0.010526 0.000423 0 -0.011753 0 2650 
1233 1 -0.012882 0.00230767 -0.010287 0.000423 0 -0.011753 0 2650 
4104 1 -0.009745 0.00306667 -0.010868 0.000423 0 -0.011753 0 2650 
497 1 -0.00574 0.00330167 -0.010398 0.000116 0 -0.011753 0 2650 
124 1 -0.005032 0.00320667 -0.01051 0.000423 0 -0.011753 0 2650 
1192 1 -0.004051 0.00352567 -0.010435 0.000116 0 -0.011753 0 2650 
3235 1 -0.00651488 0.00452177 -0.0107643 0.000423 -0.00988696 -0.0212582 0.0528137 2650 
2912 1 -0.006578 0.00546867 -0.010859 0.000116 0 -0.011753 0 2650 
3787 1 -0.006362 0.00590467 -0.010668 0.000116 0 -0.011753 0 2650 
760 1 -0.006943 0.00624167 -0.010573 4.2e-05 0 -0.011753 0 2650 
861 1 -0.006339 0.00641567 -0.010358 0.000116 0 -0.011753 0 2650 
2326 1 -0.011808 0.00719467 -0.010725 0.000423 0 -0.011753 0 2650 
2500 1 -0.010648 0.00779067 -0.010771 0.000116 0 -0.011753 0 2650 
2948 1 -0.002008 0.00760767 -0.010384 0.000116 0 -0.011753 0 2650 
4166 1 -0.00421151 0.0079008 -0.0105244 0.000656 0.00036549 -0.0109858 -0.00107892 2650 
3727 1 -0.004412 0.00854567 -0.010287 4.2e-05 0 -0.011753 0 2650 
3456 1 -0.00345135 0.0086563 -0.0107035 0.000423 -0.00364508 -0.0138266 -0.0038965 2650 
1935 1 -0.00385252 0.00920015 -0.010817 0.000116 -0.0650223 -0.119388 0.0262199 2650 
1010 1 -0.011662 0.00980367 -0.010903 0.000423 0 -0.011753 0 2650 
3132 1 -0.007716 0.00986667 -0.01033 0.000116 0 -0.011753 0 2650 
2097 1 -0.00889 0.0103597 -0.010395 0.000656 0 -0.011753 0 2650 
89 1 -0.003936 0.0104117 -0.010466 0.000116 0 -0.011753 0 2650 
2759 1 -0.011495 0.0113597 -0.010915 0.000656 0 -0.011753 0 2650 
1376 1 -0.009927 0.0111057 -0.010971 0.000116 0 -0.011753 0 2650 
2261 1 -0.007381 0.0114567 -0.010514 0.000116 0 -0.011753 0 2650 
233 1 -0.004974 0.0116927 -0.010958 0.000423 0 -0.011753 0 2650 
4167 1 -0.003538 0.0117997 -0.010916 0.000656 0 -0.011753 0 2650 
2260 1 -0.008542 0.0120777 -0.010892 0.000116 0 -0.011753 0 2650 
1802 1 -0.004638 0.0124527 -0.010282 0.000423 0 -0.011753 0 2650 
499 1 -0.011613 0.0128277 -0.010379 0.000116 0 -0.011753 0 2650 
1754 1 -0.008854 0.0129337 -0.010611 4.2e-05 0 -0.011753 0 2650 
1913 1 -0.008189 0.0130677 -0.010954 0.000423 0 -0.011753 0 2650 
3899 1 -0.004387 0.0129517 -0.010427 0.000116 0 -0.011753 0 2650 
3595 1 -0.007357 0.0136367 -0.010628 0.000116 0 -0.011753 0 2650 
3767 1 -0.006013 0.0135527 -0.010843 0.000423 0 -0.011753 0 2650 
963 1 -0.000669 0.0136157 -0.010387 0.000116 0 -0.011753 0 2650 
1525 1 -0.00483505 0.021802 -0.0107794 0.000116 0.0348354 0.358887 0.286739 2650 
3409 1 -0.00866175 -0.00316992 -0.00974008 0.000656 -0.0237104 -0.0329197 -0.0228617 2650 
1068 1 -0.01118 -0.00303633 -0.009643 0.000116 0 -0.011753 0 2650 
3652 1 -0.0111979 -0.00238537 -0.00956956 0.000423 -0.024965 -0.0560083 -0.00556089 2650 
4285 1 -0.00978045 -0.00291274 -0.0100038 0.000423 -0.0326668 -0.0127335 -0.0140672 2650 
3933 1 -0.006596 -0.00213033 -0.009623 0.000116 0 -0.011753 0 2650 
3815 1 -0.00148896 -0.00182735 -0.00958683 0.000116 0.233693 -0.0104105 -0.188058 2650 
939 1 -0.001916 -0.00107433 -0.009682 0.000116 0 -0.011753 0 2650 
1630 1 -0.00227 -0.00100933 -0.00958 0.000116 0 -0.011753 0 2650 
417 1 -0.004944 -0.000764331 -0.009884 0.000116 0 -0.011753 0 2650 
3460 1 -0.013084 9.56691e-05 -0.009951 0.000116 0 -0.011753 0 2650 
2778 1 -0.01202 0.000360669 -0.00976 0.000423 0 -0.011753 0 2650 
3756 1 -0.00996465 0.000367064 -0.0100689 0.000423 -0.174231 0.0223018 -0.0434709 2650 
1562 1 -0.002141 0.000760669 -0.010154 0.000423 0 -0.011753 0 2650 
1750 1 -0.011512 0.00100267 -0.01018 4.2e-05 0 -0.011753 0 2650 
281 1 -0.0100291 0.000991889 -0.0100501 0.000116 -0.094547 0.106781 0.0493876 2650 
1160 1 -0.010117 0.00121867 -0.010115 0.000116 0 -0.011753 0 2650 
3264 1 -0.003542 0.00118967 -0.010108 0.000116 0 -0.011753 0 2650 
800 1 -0.00114 0.00147967 -0.009738 0.000423 0 -0.011753 0 2650 
2164 1 -0.012835 0.00162567 -0.009898 0.000116 0 -0.011753 0 2650 
2975 1 -0.011752 0.00223867 -0.009985 0.000656 0 -0.011753 0 2650 
3250 1 -0.008233 0.00234667 -0.010036 0.000116 0 -0.011753 0 2650 
3135 1 -0.00038 0.00215567 -0.010152 0.000116 0 -0.011753 0 2650 
3832 1 -0.01255 0.00260767 -0.009616 4.2e-05 0 -0.011753 0 2650 
4374 1 -0.008921 0.00237367 -0.009568 4.2e-05 0 -0.011753 0 2650 
3324 1 -0.0115299 0.00389345 -0.00975659 0.000423 -0.0148526 -0.0100043 0.0122397 2650 
1977 1 -0.006037 0.00361667 -0.009842 4.2e-05 0 -0.011753 0 2650 
364 1 -0.008943 0.00457667 -0.009746 0.000423 0 -0.011753 0 2650 
3031 1 -0.011934 0.00511667 -0.00971 0.000116 0 -0.011753 0 2650 
2474 1 -0.001928 0.00496067 -0.009724 0.000423 0 -0.011753 0 2650 
3790 1 -0.012918 0.00554767 -0.010098 0.000116 0 -0.011753 0 2650 
3116 1 -0.01058 0.00561767 -0.009568 0.000423 0 -0.011753 0 2650 
4256 1 -0.007946 0.00631067 -0.010197 0.000116 0 -0.011753 0 2650 
958 1 -0.001223 0.00611567 -0.009713 0.000116 0 -0.011753 0 2650 
3364 1 -0.006241 0.00640967 -0.010015 0.000116 0 -0.011753 0 2650 
1310 1 -0.011355 0.00766967 -0.010263 4.2e-05 0 -0.011753 0 2650 
3071 1 -0.009089 0.00847467 -0.009836 4.2e-05 0 -0.011753 0 2650 
2581 1 -0.004751 0.00947167 -0.01 0.000423 0 -0.011753 0 2650 
3967 1 -0.00802825 0.0100116 -0.00952201 0.000423 -0.00817862 -0.00706642 0.00830439 2650 
2344 1 -0.001557 0.0103727 -0.009839 0.000423 0 -0.011753 0 2650 
3361 1 -5.4e-05 0.0106217 -0.010103 0.000116 0 -0.011753 0 2650 
301 1 -0.005514 0.0115107 -0.009906 0.000116 0 -0.011753 0 2650 
3784 1 -0.00867406 0.0122213 -0.00954839 0.000116 -0.153494 0.0819907 -0.0140492 2650 
660 1 -0.002925 0.0119517 -0.009723 4.2e-05 0 -0.011753 0 2650 
1827 1 -0.000405 0.0124567 -0.009578 0.000116 0 -0.011753 0 2650 
1087 1 -0.005985 0.0127637 -0.009545 0.000116 0 -0.011753 0 2650 
2781 1 -0.00323647 0.0129001 -0.0100096 0.000423 -0.0117237 -0.0176724 0.00043508 2650 
2846 1 -0.006122 -0.00321633 -0.009068 4.2e-05 0 -0.011753 0 2650 
1787 1 -0.012291 -0.00184433 -0.008935 0.000423 0 -0.011753 0 2650 
661 1 -0.00841367 -0.00191037 -0.00889734 0.000656 -0.0248865 -0.0346178 0.0286859 2650 
756 1 -0.007322 -0.00186533 -0.009147 0.000116 0 -0.011753 0 2650 
4306 1 -0.0110621 -0.0013294 -0.00946224 0.000423 -0.11234 0.0471428 -0.0463662 2650 
3196 1 -0.00698929 -0.000659071 -0.00874615 0.000423 0.0418395 0.00921167 -0.158288 2650 
3393 1 -0.006109 -0.000605331 -0.008736 4.2e-05 0 -0.011753 0 2650 
1690 1 -0.004681 -0.000728331 -0.00917 0.000423 0 -0.011753 0 2650 
2436 1 -0.00956928 7.87311e-05 -0.00897975 0.000423 -0.203474 -0.110277 0.0688352 2650 
159 1 -0.005821 6.6691e-06 -0.009096 0.000423 0 -0.011753 0 2650 
608 1 -0.01048 0.00231967 -0.008875 0.000116 0 -0.011753 0 2650 
193 1 -0.010056 0.00176067 -0.009264 0.000116 0 -0.011753 0 2650 
2299 1 -0.003792 0.00221367 -0.009457 4.2e-05 0 -0.011753 0 2650 
3450 1 -0.011877 0.00254967 -0.008756 0.000423 0 -0.011753 0 2650 
1184 1 -0.011934 0.00280167 -0.00927 0.000116 0 -0.011753 0 2650 
1121 1 -0.002698 0.00243167 -0.00928 0.000423 0 -0.011753 0 2650 
2541 1 -0.00658284 0.00406698 -0.00924075 0.000656 -0.00129575 -0.0112361 0.000264226 2650 
3558 1 -0.007141 0.00529267 -0.00937 0.000423 0 -0.011753 0 2650 
3380 1 -0.00591321 0.00482454 -0.00871564 0.000116 0.216567 -0.0280292 -0.31276 2650 
1171 1 -0.008755 0.00594967 -0.00943 0.000116 0 -0.011753 0 2650 
1567 1 -0.008425 0.00690867 -0.008875 0.000423 0 -0.011753 0 2650 
1584 1 -0.005051 0.00684367 -0.00882 0.000423 0 -0.011753 0 2650 
3984 1 -0.012135 0.00776067 -0.009019 0.000423 0 -0.011753 0 2650 
373 1 -0.01088 0.00717167 -0.009322 0.000423 0 -0.011753 0 2650 
842 1 -0.010207 0.00747467 -0.009055 0.000116 0 -0.011753 0 2650 
2633 1 -0.005185 0.00742467 -0.009252 4.2e-05 0 -0.011753 0 2650 
2789 1 -0.0023556 0.00784113 -0.00886756 0.000423 0.0864362 0.00211987 -0.0264825 2650 
4013 1 -0.00416839 0.00818481 -0.009249 0.000116 0.0546197 0.155296 0.154986 2650 
949 1 -0.004033 0.00797567 -0.009175 0.000116 0 -0.011753 0 2650 
4077 1 -0.012422 0.00899667 -0.00892 0.000423 0 -0.011753 0 2650 
2649 1 -0.00472 0.00888367 -0.008709 0.000656 0 -0.011753 0 2650 
368 1 -0.013572 0.00947567 -0.008947 0.000423 0 -0.011753 0 2650 
595 1 -0.009604 0.00966467 -0.009278 0.000423 0 -0.011753 0 2650 
4368 1 -0.004474 0.0100567 -0.008808 0.000116 0 -0.011753 0 2650 
3042 1 -0.012085 0.0107517 -0.009039 0.000116 0 -0.011753 0 2650 
2678 1 -0.01021 0.0107507 -0.009104 0.000423 0 -0.011753 0 2650 
2094 1 -0.00643403 0.0116628 -0.00906244 0.000656 0.00164412 -0.0100344 0.000950292 2650 
1021 1 -0.012788 0.0123107 -0.008833 0.000423 0 -0.011753 0 2650 
796 1 -0.00925 0.0122767 -0.009199 0.000423 0 -0.011753 0 2650 
4179 1 -0.0048369 0.0118894 -0.00918915 0.000423 -0.00365698 -0.00657615 -0.0104014 2650 
449 1 -0.002169 0.0125337 -0.008811 0.000656 0 -0.011753 0 2650 
1859 1 -0.011231 0.0131237 -0.009139 4.2e-05 0 -0.011753 0 2650 
232 1 -0.010455 0.0131157 -0.008807 0.000656 0 -0.011753 0 2650 
473 1 -0.006405 0.0134647 -0.009211 0.000423 0 -0.011753 0 2650 