ITEM: TIMESTEP
1101396
ITEM: NUMBER OF ATOMS
4382
ITEM: BOX BOUNDS ff ff ff
-0.15 0.15
-0.15 0.06
-0.15 0.15
ITEM: ATOMS id type x y z radius vx vy vz density 
2964 1 -0.0101637 -0.0508047 -0.068203 4.2e-05 -1.45878 -1.85117 0.126501 2650 
741 1 -0.0515232 -0.0602469 -0.04572 0.000116 -2.65014 0.112795 3.01618 2650 
1845 1 -0.0591934 -0.0603666 -0.0352258 0.000116 -1.52164 0.00874901 2.33474 2650 
3143 1 -0.0632101 -0.0623741 -0.0273786 0.000116 -1.41055 0.468619 3.2235 2650 
3810 1 -0.0657286 -0.0529628 0.0205919 0.000116 1.24436 -0.219535 3.64025 2650 
3444 1 -0.00160441 -0.044951 -0.0685597 0.000423 -4.28768 -0.705561 0.133123 2650 
3313 1 -0.00494584 -0.040624 -0.0683995 0.000423 -3.78877 -1.0324 0.274035 2650 
1568 1 -0.012525 -0.0195127 -0.0674248 0.000423 -4.20769 -0.311679 0.794261 2650 
1687 1 -0.0114551 -0.0151818 -0.067614 0.000423 -3.54117 -0.123128 0.596652 2650 
3718 1 -0.0176613 -0.0136773 -0.0666584 4.2e-05 -3.65885 -0.359004 0.988911 2650 
3945 1 -0.0176969 -0.00722854 -0.0666486 4.2e-05 -3.15828 -0.235246 0.832502 2650 
4025 1 -0.00283616 -0.00426769 -0.0664454 0.000116 -3.26914 -0.0338482 -1.05073 2650 
4372 1 -0.0207896 -0.0131057 -0.0628933 4.2e-05 -2.55513 -0.517131 2.73538 2650 
3329 1 -0.000822471 -0.0111455 -0.0621916 0.000423 -0.12343 -0.687785 -9.42471 2650 
1957 1 -0.0324312 -0.00508277 -0.0607712 0.000116 -2.87853 -0.169451 1.50833 2650 
4187 1 -0.0346455 -0.0176419 -0.0591825 0.000423 -2.92796 -0.487767 1.71345 2650 
2806 1 -0.0360571 -0.0115995 -0.0586936 0.000116 -2.83025 -0.724644 1.729 2650 
1818 1 -0.0380234 -0.00452892 -0.0535873 0.000116 -2.44857 -0.0616551 1.70135 2650 
691 1 -0.00405002 -0.00684356 -0.0494933 0.000423 -0.602743 -0.324301 -7.33735 2650 
821 1 -0.0497081 -0.00783084 -0.0472237 0.000423 -2.20132 -0.184994 2.28851 2650 
4353 1 -0.0534739 -0.0124529 -0.0434224 0.000116 -2.19036 -0.226856 2.68344 2650 
734 1 -0.0544761 -0.0160264 -0.0421581 0.000116 -1.95231 -0.347402 2.57453 2650 
3875 1 -0.0541075 -0.00598177 -0.0410293 0.000423 -1.19977 -0.144684 2.90209 2650 
1760 1 -0.0566127 -0.0239629 -0.0393721 4.2e-05 -3.20207 1.95279 4.67049 2650 
3918 1 -0.0393708 -0.0051295 -0.036851 0.000116 -6.07604 -0.167896 -5.68205 2650 
3330 1 -0.0597676 -0.010984 -0.0336264 0.000423 -1.81525 0.0768268 3.23961 2650 
947 1 -0.0591487 -0.00969246 -0.0329693 0.000116 0.890129 -0.421445 3.84697 2650 
2618 1 -0.00227945 -0.00782333 -0.029279 0.000116 -0.326963 -0.399939 -4.44683 2650 
2317 1 -0.0622033 -0.0299455 -0.0283181 0.000656 -1.65402 -0.665195 3.70439 2650 
2224 1 -0.0160774 -0.0047669 -0.0281435 0.000423 -2.40896 -0.1662 -4.17614 2650 
1270 1 -0.0645163 -0.00482615 -0.0241384 0.000116 -1.89358 -0.922026 5.033 2650 
1239 1 -0.00766551 -0.00818565 -0.0196616 0.000423 -0.799618 -1.37476 -1.97294 2650 
208 1 -0.0665459 -0.0155802 -0.0177871 0.000116 -0.964224 -0.371151 3.35524 2650 
3422 1 -0.0362135 -0.00433253 -0.0177468 0.000423 -5.69208 0.272888 -2.77527 2650 
3204 1 -0.0338594 -0.00461946 -0.0180911 0.000423 -5.04497 -0.155306 -2.6187 2650 
1943 1 -0.00383905 -0.00448693 -0.017712 0.000116 -0.316626 -0.898215 -1.22037 2650 
2123 1 -0.00490269 -0.00809255 -0.0167327 0.000423 -0.738184 -0.409726 -2.57302 2650 
817 1 -0.0412894 -0.00471227 -0.0172622 0.000423 -6.28674 -0.147949 -2.62218 2650 
606 1 -0.000183 0.00496467 -0.016592 0.000116 0 -0.011753 0 2650 
2713 1 -0.000763 0.0119357 -0.016767 0.000116 0 -0.011753 0 2650 
4116 1 -0.004072 -0.00069233 -0.016193 0.000116 0 -0.011753 0 2650 
93 1 -0.00354 -0.00028133 -0.016299 0.000116 0 -0.011753 0 2650 
1991 1 -0.002768 0.00129767 -0.01599 0.000656 0 -0.011753 0 2650 
736 1 -0.003429 0.00288967 -0.016474 0.000116 0 -0.011753 0 2650 
2013 1 -0.00315681 0.00407913 -0.0160136 0.000423 0.00266818 -0.00871737 -0.00337826 2650 
3789 1 -0.00178259 0.00423728 -0.0158336 0.000116 -0.0185147 0.0392615 -0.0216295 2650 
3546 1 -0.002797 0.00602667 -0.016252 0.000423 0 -0.011753 0 2650 
2301 1 -0.004222 0.00673767 -0.016305 4.2e-05 0 -0.011753 0 2650 
188 1 -0.00068 0.00650667 -0.016516 0.000116 0 -0.011753 0 2650 
3616 1 -0.000938 0.00730167 -0.016074 4.2e-05 0 -0.011753 0 2650 
615 1 -0.00157788 0.00814204 -0.0165688 0.000116 -0.304292 -0.202476 0.0637749 2650 
3934 1 -0.001977 0.00972667 -0.016218 0.000116 0 -0.011753 0 2650 
1357 1 -0.00441316 0.0140904 -0.0158859 0.000423 -0.0662446 0.165624 0.033916 2650 
843 1 -0.0670757 -0.0195413 -0.01568 0.000116 -0.758744 -0.550786 3.16604 2650 
1964 1 -0.065693 -0.00567309 -0.0151357 0.000116 1.968 0.0292265 3.79343 2650 
3295 1 -0.00241185 -0.00238948 -0.0151659 0.000656 -0.0259609 -0.0460209 -0.0625831 2650 
3441 1 -0.005522 -0.00235833 -0.01502 0.000423 0 -0.011753 0 2650 
330 1 -0.001698 -0.00101733 -0.015557 4.2e-05 0 -0.011753 0 2650 
3733 1 -0.00250866 -0.000785717 -0.0154397 0.000656 -0.00903733 0.00595212 -0.0173299 2650 
2965 1 -2.2e-05 -0.00071133 -0.015341 4.2e-05 0 -0.011753 0 2650 
1679 1 -0.00360981 0.00365689 -0.0154303 0.000423 0.00038771 -0.00537817 -0.000606382 2650 
3645 1 -0.00157247 0.00359039 -0.0156409 0.000423 -0.016092 0.00258107 0.0270932 2650 
4165 1 -0.00566661 0.00512407 -0.0151176 0.000656 0.00622358 0.0106794 0.0127596 2650 
2399 1 -0.002418 0.00517867 -0.015541 0.000116 0 -0.011753 0 2650 
3322 1 -0.00452436 0.00558469 -0.0155607 0.000423 -0.0209456 -0.0191109 -0.033031 2650 
4296 1 -0.0015719 0.00573398 -0.015566 0.000423 -0.000356005 -0.0132873 -0.00240934 2650 
1986 1 -0.00410325 0.00749776 -0.0156023 0.000656 0.00762539 0.0149956 0.0116892 2650 
2969 1 -0.001381 0.00774867 -0.015354 0.000656 0 -0.011753 0 2650 
978 1 -0.005372 0.00842467 -0.015286 0.000116 0 -0.011753 0 2650 
2701 1 -0.00336668 0.00848012 -0.0150936 0.000116 0.0331549 0.247236 -0.00676049 2650 
728 1 -0.00379566 0.0107973 -0.0157458 0.000116 -0.0650853 0.147179 0.0609561 2650 
86 1 -0.002064 0.0109827 -0.015055 0.000116 0 -0.011753 0 2650 
3177 1 -0.001068 0.0107827 -0.015412 4.2e-05 0 -0.011753 0 2650 
3830 1 -0.006879 0.0112787 -0.015411 4.2e-05 0 -0.011753 0 2650 
884 1 -0.00492178 0.012387 -0.0152905 0.000656 -0.0291238 0.0251675 0.0345608 2650 
938 1 -0.000869 0.0121887 -0.015416 0.000116 0 -0.011753 0 2650 
3632 1 -0.006134 0.0129047 -0.015144 0.000423 0 -0.011753 0 2650 
2578 1 -0.0670681 -0.0121037 -0.0142458 0.000423 -1.75148 -0.388355 3.0525 2650 
2271 1 -0.0283696 -0.00593679 -0.0143905 0.000116 -4.0099 -0.290046 -2.02145 2650 
4342 1 -0.0145629 -0.00551452 -0.0145916 0.000116 -2.26254 -0.245785 -2.22436 2650 
3266 1 -0.0108195 -0.00456717 -0.0149704 0.000116 -1.43964 -0.196839 -1.97559 2650 
2256 1 -0.001753 -0.00290733 -0.014775 0.000116 0 -0.011753 0 2650 
747 1 -0.001416 -0.00288733 -0.014317 0.000116 0 -0.011753 0 2650 
3502 1 -0.001236 -0.00191233 -0.014816 4.2e-05 0 -0.011753 0 2650 
3303 1 -0.0067859 -0.00146558 -0.0145796 0.000656 -0.0119966 -0.0726635 -0.0251966 2650 
1640 1 -0.001358 -0.00057933 -0.014495 4.2e-05 0 -0.011753 0 2650 
2313 1 -0.005044 0.00026467 -0.014923 0.000656 0 -0.011753 0 2650 
2413 1 -0.003433 0.00010267 -0.014868 4.2e-05 0 -0.011753 0 2650 
1053 1 -0.007469 0.00133667 -0.014946 0.000116 0 -0.011753 0 2650 
3239 1 -0.002155 0.00154667 -0.014442 0.000116 0 -0.011753 0 2650 
2332 1 -0.003268 0.00162767 -0.014853 0.000423 0 -0.011753 0 2650 
1569 1 -0.00196345 0.00385293 -0.0146582 0.000423 -0.0214881 0.00570095 0.0411068 2650 
2547 1 -0.00762487 0.00437941 -0.0142158 0.000423 -0.0464443 0.0392874 0.0525081 2650 
1219 1 -0.00434413 0.0045179 -0.0144634 0.000656 0.035204 0.0225104 -0.0281999 2650 
220 1 -0.003649 0.00424167 -0.014897 4.2e-05 0 -0.011753 0 2650 
3147 1 -0.00182385 0.00462234 -0.0149456 0.000116 -0.00706837 0.0221131 0.0132401 2650 
104 1 -0.00218 0.00449067 -0.014554 4.2e-05 0 -0.011753 0 2650 
3121 1 -0.00740453 0.00507496 -0.0146603 0.000423 0.00234929 0.00183423 -0.00601982 2650 
3564 1 -0.000147 0.00696767 -0.014738 0.000423 0 -0.011753 0 2650 
2438 1 -0.005612 0.00753967 -0.014612 0.000423 0 -0.011753 0 2650 
3365 1 -0.002315 0.00760467 -0.014552 0.000116 0 -0.011753 0 2650 
713 1 -0.00460283 0.0086763 -0.0143297 0.000423 -0.0205718 -0.00213651 0.0254432 2650 
4190 1 -0.007319 0.00927467 -0.014559 0.000423 0 -0.011753 0 2650 
3515 1 -0.00485627 0.00963493 -0.014806 0.000656 -0.0258541 -0.014476 -0.00535425 2650 
2250 1 -0.00418201 0.0105893 -0.0146467 0.000423 -0.0796097 0.0756391 0.0421091 2650 
371 1 -0.000512143 0.0109145 -0.0142897 0.000423 -0.000508818 -0.00613125 -0.00679769 2650 
1228 1 -0.001302 0.0110597 -0.014946 0.000423 0 -0.011753 0 2650 
4133 1 -0.0675511 -0.0247884 -0.0134598 0.000116 -0.658194 -0.541153 3.26036 2650 
3229 1 -0.006614 -0.00278933 -0.01374 0.000423 0 -0.011753 0 2650 
3622 1 -0.00545964 -0.00249131 -0.0135988 0.000656 0.00467838 -0.0472728 -0.0117267 2650 
327 1 -0.003849 -0.00266933 -0.013874 4.2e-05 0 -0.011753 0 2650 
2705 1 -0.001432 -0.00285033 -0.013674 0.000116 0 -0.011753 0 2650 
2939 1 -0.008405 -0.00186633 -0.013483 0.000116 0 -0.011753 0 2650 
1393 1 -0.009523 -0.00156233 -0.013534 0.000116 0 -0.011753 0 2650 
2783 1 -0.003328 -0.00052733 -0.013758 0.000423 0 -0.011753 0 2650 
4126 1 -0.001667 -0.00045433 -0.013741 0.000116 0 -0.011753 0 2650 
3778 1 -0.003893 0.00098967 -0.013816 0.000423 0 -0.011753 0 2650 
1620 1 -0.008456 0.00300867 -0.013856 0.000116 0 -0.011753 0 2650 
1059 1 -0.00670184 0.00442892 -0.0139958 0.000116 -0.00683586 -0.0187509 0.0600761 2650 
3587 1 -0.006279 0.00426567 -0.013694 0.000116 0 -0.011753 0 2650 
2485 1 -0.00660158 0.00482085 -0.0138985 0.000116 0.00399842 0.0209962 0.0466364 2650 
2322 1 -0.00699673 0.00830498 -0.013429 0.000656 -0.00732336 -0.00366906 -0.00588437 2650 
1288 1 -0.002467 0.00890767 -0.014044 0.000116 0 -0.011753 0 2650 
171 1 -0.00208166 0.00944275 -0.0140881 0.000116 -0.0348781 -0.0493867 -0.266281 2650 
1974 1 -0.00227489 0.00980626 -0.0139077 4.2e-05 -0.122631 0.0919633 -0.222648 2650 
3106 1 -0.00203846 0.00967349 -0.013497 0.000423 -0.0614671 0.0102652 -0.236691 2650 
2222 1 -0.000169 0.00953667 -0.014111 0.000423 0 -0.011753 0 2650 
581 1 -0.005568 0.0104287 -0.014167 0.000423 0 -0.011753 0 2650 
1476 1 -0.006941 0.0117077 -0.013435 0.000423 0 -0.011753 0 2650 
2596 1 -0.000853165 0.0112311 -0.0134878 0.000116 0.0372385 0.167955 -0.209269 2650 
3669 1 -0.000597 0.0118137 -0.014068 0.000423 0 -0.011753 0 2650 
1409 1 -0.00044 0.0126877 -0.013868 0.000116 0 -0.011753 0 2650 
3294 1 -0.00636049 0.0287978 -0.0136925 0.000656 -0.0563035 0.49326 0.113749 2650 
3547 1 -0.0201239 -0.00443315 -0.0131807 0.000423 -2.79048 -0.156015 -1.86077 2650 
1372 1 -0.0152321 -0.00415663 -0.0129108 0.000423 -1.87609 -0.151002 -1.65 2650 
428 1 -0.00922 -0.00282033 -0.013206 0.000116 0 -0.011753 0 2650 
3015 1 -0.008364 -0.00287533 -0.013043 0.000423 0 -0.011753 0 2650 
827 1 -0.005975 -0.00299333 -0.013005 0.000116 0 -0.011753 0 2650 
167 1 -0.004273 -0.00283533 -0.012826 0.000116 0 -0.011753 0 2650 
1487 1 -0.004643 -0.00242633 -0.013241 0.000116 0 -0.011753 0 2650 
2732 1 -0.002992 -0.00290033 -0.013183 0.000116 0 -0.011753 0 2650 
3633 1 -0.00941 -0.00229633 -0.013111 0.000423 0 -0.011753 0 2650 
4056 1 -0.0048098 -0.00104984 -0.0132693 0.000656 0.0589984 -0.0321199 -0.018168 2650 
3551 1 -0.005293 0.00104867 -0.013215 0.000423 0 -0.011753 0 2650 
1125 1 -0.000165 0.00163567 -0.013134 0.000423 0 -0.011753 0 2650 
2525 1 -0.004063 0.00313467 -0.013231 4.2e-05 0 -0.011753 0 2650 
4371 1 -0.000719 0.00244667 -0.012831 0.000116 0 -0.011753 0 2650 
2283 1 -0.000701 0.00276167 -0.012847 0.000116 0 -0.011753 0 2650 
1595 1 -0.007474 0.00379267 -0.012756 0.000423 0 -0.011753 0 2650 
2293 1 -0.00129715 0.00330078 -0.0129212 0.000116 0.0416688 0.071753 -0.100968 2650 
1589 1 -0.0089935 0.00404955 -0.0130393 0.000423 -0.0647442 0.0335493 0.0762813 2650 
2609 1 -0.00886 0.00467467 -0.013248 0.000116 0 -0.011753 0 2650 
2619 1 -0.005851 0.00395067 -0.012854 0.000116 0 -0.011753 0 2650 
3880 1 -0.010277 0.00486667 -0.012913 0.000423 0 -0.011753 0 2650 
3917 1 -0.003984 0.00543567 -0.012703 0.000116 0 -0.011753 0 2650 
2194 1 -0.002781 0.00508867 -0.012701 4.2e-05 0 -0.011753 0 2650 
933 1 -0.0104101 0.00583491 -0.0126862 0.000423 -0.102456 0.0140485 0.124832 2650 
2918 1 -0.00757 0.00602567 -0.012948 0.000116 0 -0.011753 0 2650 
2059 1 -0.003583 0.00564467 -0.012756 0.000116 0 -0.011753 0 2650 
4241 1 -0.000887642 0.00571247 -0.0128089 0.000116 0.0418184 0.0132573 0.0231045 2650 
4078 1 -0.00612884 0.0076964 -0.0129063 0.000423 -0.0196946 -0.00953845 0.00130892 2650 
2777 1 -0.0054094 0.00819117 -0.0128412 0.000423 -0.035076 0.0434508 0.0575263 2650 
1427 1 -0.002948 0.00797567 -0.013376 4.2e-05 0 -0.011753 0 2650 
3259 1 -0.008055 0.00904067 -0.013388 0.000116 0 -0.011753 0 2650 
4318 1 -0.00776303 0.00877546 -0.0127814 0.000423 -0.00589465 -0.00768269 0.00318441 2650 
1795 1 -0.008775 0.00997467 -0.012959 0.000423 0 -0.011753 0 2650 
1769 1 -0.004822 0.00989567 -0.013243 0.000656 0 -0.011753 0 2650 
1381 1 -0.00422802 0.011055 -0.012963 0.000116 -0.123304 0.190039 -0.120274 2650 
205 1 -0.000744 0.0106917 -0.01334 0.000116 0 -0.011753 0 2650 
4314 1 -0.00396217 0.0116422 -0.013115 0.000423 -0.092085 0.0376702 0.0423056 2650 
1775 1 -0.008218 0.0133667 -0.012996 0.000423 0 -0.011753 0 2650 
4160 1 -0.006657 0.0130577 -0.013271 4.2e-05 0 -0.011753 0 2650 
3644 1 -0.000733 0.0133627 -0.013392 0.000423 0 -0.011753 0 2650 
3385 1 -0.000871086 -0.00323623 -0.0124717 0.000116 0.210455 -0.166631 -0.035107 2650 
2957 1 -0.010592 -0.00261633 -0.012102 4.2e-05 0 -0.011753 0 2650 
2238 1 -0.00688193 -0.00267155 -0.0123905 0.000423 0.00330829 -0.0451229 0.0143354 2650 
4068 1 -0.001953 -0.00313433 -0.012327 0.000423 0 -0.011753 0 2650 
868 1 -0.000201 -0.00266633 -0.012301 0.000116 0 -0.011753 0 2650 
2685 1 -0.0078423 -0.00214823 -0.0125792 0.000423 -0.0443677 -0.0522862 0.0323329 2650 
3200 1 -0.00618292 -0.0021965 -0.0123388 0.000423 0.00613186 -0.04346 0.0113882 2650 
4150 1 -0.001319 -0.00229133 -0.012208 0.000116 0 -0.011753 0 2650 
1924 1 -0.0103343 -0.00092369 -0.0125498 0.000423 3.99817e-05 -0.053411 0.039122 2650 
3261 1 -0.010456 -0.00144233 -0.012294 0.000116 0 -0.011753 0 2650 
545 1 -0.002328 -0.00084033 -0.012432 4.2e-05 0 -0.011753 0 2650 
249 1 -0.00980136 -0.000384256 -0.0120336 0.000423 -0.0404414 -0.0377152 0.0629853 2650 
2819 1 -0.007468 -0.00030633 -0.012046 0.000116 0 -0.011753 0 2650 
2468 1 -0.003167 -0.00046733 -0.012131 0.000423 0 -0.011753 0 2650 
1763 1 -0.001143 -0.00017933 -0.012442 0.000656 0 -0.011753 0 2650 
950 1 -0.010031 0.00042567 -0.011866 0.000116 0 -0.011753 0 2650 
1901 1 -0.00367372 0.000396597 -0.012048 0.000423 -0.0220801 -0.0570589 0.0406976 2650 
3643 1 -0.004514 0.000947626 -0.0120083 0.000423 -0.0276464 -0.00536394 0.0154079 2650 
3637 1 -0.002026 0.00099967 -0.012108 0.000423 0 -0.011753 0 2650 
623 1 -0.005429 0.00217367 -0.012246 0.000116 0 -0.011753 0 2650 
1422 1 -0.003881 0.00166667 -0.012349 4.2e-05 0 -0.011753 0 2650 
2813 1 -1e-05 0.00233367 -0.012237 0.000116 0 -0.011753 0 2650 
3411 1 -0.0102213 0.00251372 -0.0119633 0.000656 0.0172953 0.017912 0.0399518 2650 
1799 1 -0.003237 0.00248167 -0.012061 0.000423 0 -0.011753 0 2650 
2690 1 -0.000309108 0.00306229 -0.0122719 0.000423 0.0552009 -0.10962 -0.0158986 2650 
3389 1 -0.010415 0.00393267 -0.012026 0.000116 0 -0.011753 0 2650 
3956 1 -0.008956 0.00325267 -0.012273 0.000656 0 -0.011753 0 2650 
2763 1 -0.000725832 0.00377972 -0.0120417 0.000423 0.0638061 -0.10879 0.165013 2650 
856 1 -0.00389 0.00415167 -0.0119 0.000116 0 -0.011753 0 2650 
2253 1 -0.00309084 0.00408323 -0.0125589 0.000423 0.0920831 0.035812 0.016033 2650 
1657 1 -0.00869038 0.00513577 -0.0120485 0.000656 -0.00770092 -0.0112608 -0.00233815 2650 
411 1 -0.009436 0.00560067 -0.012079 0.000116 0 -0.011753 0 2650 
3826 1 -0.009208 0.00582767 -0.012552 0.000116 0 -0.011753 0 2650 
3316 1 -0.008979 0.00658067 -0.012376 0.000423 0 -0.011753 0 2650 
1261 1 -0.007462 0.00648467 -0.012403 0.000423 0 -0.011753 0 2650 
3362 1 -0.002672 0.00659367 -0.012199 0.000116 0 -0.011753 0 2650 
3446 1 -0.002592 0.00758767 -0.012627 0.000423 0 -0.011753 0 2650 
3035 1 -0.0108408 0.00811244 -0.0122525 0.000116 -0.147222 0.0631952 0.172039 2650 
1327 1 -0.00932393 0.00805171 -0.0125741 0.000656 -0.0967578 0.0679001 0.109981 2650 
3030 1 -0.001189 0.00809067 -0.012596 0.000116 0 -0.011753 0 2650 
191 1 -0.011348 0.00941167 -0.012254 0.000116 0 -0.011753 0 2650 
70 1 -0.010029 0.00901567 -0.01242 0.000116 0 -0.011753 0 2650 
3847 1 -0.009739 0.0100127 -0.012406 0.000656 0 -0.011753 0 2650 
3173 1 -0.004958 0.0102197 -0.012321 4.2e-05 0 -0.011753 0 2650 
1495 1 -0.004483 0.00955867 -0.012591 0.000116 0 -0.011753 0 2650 
4002 1 -0.000443 0.0102517 -0.01223 0.000116 0 -0.011753 0 2650 
1250 1 -0.007399 0.0107377 -0.012448 0.000423 0 -0.011753 0 2650 
2109 1 -0.00207771 0.010828 -0.0123764 0.000423 -0.0263796 0.073224 -0.0180073 2650 
2630 1 -0.001036 0.0104277 -0.012074 4.2e-05 0 -0.011753 0 2650 
65 1 -0.009488 0.0116327 -0.011959 0.000116 0 -0.011753 0 2650 
1578 1 -0.007713 0.0126287 -0.011972 0.000423 0 -0.011753 0 2650 
911 1 -0.00675919 0.0124245 -0.0119927 0.000423 -0.153272 0.0598619 0.0257807 2650 
1423 1 -0.00145 0.0119077 -0.012526 4.2e-05 0 -0.011753 0 2650 
2483 1 -0.008006 0.0127897 -0.012441 0.000116 0 -0.011753 0 2650 
2205 1 -0.00481983 0.0130763 -0.0123418 0.000656 0.000183776 -0.0119531 -0.000657984 2650 
1346 1 -0.00134143 0.0133114 -0.0124177 0.000423 0.0112383 0.146251 0.0960885 2650 
1826 1 -0.00179912 0.0186959 -0.0125826 0.000116 0.269854 0.44368 -0.0816137 2650 
3588 1 -0.00182598 0.0223777 -0.0121075 0.000116 0.500572 0.21911 0.239725 2650 
704 1 -0.01034 -0.00308733 -0.011479 0.000423 0 -0.011753 0 2650 
3999 1 -0.005715 -0.00293133 -0.011742 0.000423 0 -0.011753 0 2650 
3679 1 -0.012092 -0.00212933 -0.011604 0.000116 0 -0.011753 0 2650 
2072 1 -0.009308 -0.00226733 -0.011721 0.000116 0 -0.011753 0 2650 
3505 1 -0.006952 -0.00117133 -0.011235 4.2e-05 0 -0.011753 0 2650 
3191 1 -0.00465148 -0.00138952 -0.0115111 0.000656 -0.0442695 0.00235925 -0.00260127 2650 
1022 1 -0.002093 -0.00130133 -0.011454 0.000423 0 -0.011753 0 2650 
123 1 -0.0109961 -0.000729621 -0.0112864 0.000423 -0.0212637 -0.0293113 -0.00580498 2650 
2166 1 -0.009005 -0.00076133 -0.011549 0.000116 0 -0.011753 0 2650 
2022 1 -0.00512025 -0.000398218 -0.0112138 0.000423 -0.025362 0.0209777 0.00742457 2650 
2827 1 -0.001988 0.00036767 -0.011163 0.000116 0 -0.011753 0 2650 
440 1 -0.00061 0.00013067 -0.011485 4.2e-05 0 -0.011753 0 2650 
4215 1 -0.011184 0.00223967 -0.011524 0.000423 0 -0.011753 0 2650 
2579 1 -0.008716 0.00224967 -0.011261 0.000423 0 -0.011753 0 2650 
1452 1 -0.00134455 0.00205827 -0.0112151 0.000423 0.00554637 -0.012591 0.0031522 2650 
2279 1 -0.011345 0.00280267 -0.01145 0.000116 0 -0.011753 0 2650 
3535 1 -9.9e-05 0.00254267 -0.011488 0.000423 0 -0.011753 0 2650 
3223 1 -0.0104777 0.0033506 -0.011331 0.000423 -0.0120555 0.0292219 0.0276155 2650 
1063 1 -0.009531 0.00385667 -0.011683 0.000116 0 -0.011753 0 2650 
3894 1 -0.005583 0.00330167 -0.011098 0.000116 0 -0.011753 0 2650 
3383 1 -0.011681 0.00485167 -0.011229 0.000116 0 -0.011753 0 2650 
3542 1 -0.003838 0.00502767 -0.011253 0.000423 0 -0.011753 0 2650 
2471 1 -0.00833503 0.00593469 -0.0112718 0.000423 -0.0907234 0.0202287 0.0449903 2650 
2294 1 -0.004894 0.00553767 -0.011565 0.000116 0 -0.011753 0 2650 
878 1 -0.003908 0.00602067 -0.011202 4.2e-05 0 -0.011753 0 2650 
708 1 -0.00252 0.00573367 -0.011391 0.000423 0 -0.011753 0 2650 
1822 1 -0.008034 0.00659067 -0.011166 0.000116 0 -0.011753 0 2650 
234 1 -0.004437 0.00656367 -0.011677 0.000423 0 -0.011753 0 2650 
1758 1 -0.00201 0.00685167 -0.01144 4.2e-05 0 -0.011753 0 2650 
2823 1 -0.0114711 0.00711584 -0.011787 0.000116 0.93129 -0.741027 -1.35052 2650 
1215 1 -0.0096399 0.00710659 -0.0114743 0.000656 -0.00949184 -0.0199862 0.00772603 2650 
222 1 -0.00128991 0.00738371 -0.0115073 0.000656 -0.00297797 -0.0641339 -0.0320517 2650 
1590 1 -0.00876953 0.00801493 -0.011483 0.000423 0.0232142 0.0391474 0.112449 2650 
4066 1 -0.00632878 0.00835573 -0.011512 0.000656 -0.00432864 0.007729 0.025362 2650 
4027 1 -0.003218 0.00798267 -0.011075 0.000116 0 -0.011753 0 2650 
2913 1 -0.00339218 0.0086072 -0.0112685 0.000116 -0.028239 -0.0119827 -0.0130286 2650 
2409 1 -0.002586 0.00792167 -0.011527 4.2e-05 0 -0.011753 0 2650 
2798 1 -0.008755 0.00902167 -0.01131 0.000423 0 -0.011753 0 2650 
1617 1 -0.00424 0.00991067 -0.011492 0.000116 0 -0.011753 0 2650 
3684 1 -0.00483 0.0111927 -0.011273 0.000116 0 -0.011753 0 2650 
1663 1 -0.009704 0.0123057 -0.011499 0.000423 0 -0.011753 0 2650 
3145 1 -0.006381 0.0123737 -0.011273 0.000116 0 -0.011753 0 2650 
2111 1 -0.009632 0.0132927 -0.011343 0.000423 0 -0.011753 0 2650 
1143 1 -0.00185641 0.0129443 -0.0117316 0.000423 0.00744219 0.00969658 -0.00437689 2650 
976 1 -0.005828 0.0137507 -0.011785 0.000116 0 -0.011753 0 2650 
1900 1 -0.00404524 0.0143806 -0.0114974 0.000423 -0.0355934 0.197623 0.0655201 2650 
4365 1 -0.00441425 0.0159342 -0.0112724 0.000116 -0.0372545 0.279327 0.100572 2650 
3482 1 -0.00815137 -0.00429834 -0.0105304 0.000116 -0.854128 -0.213029 -1.11999 2650 
2208 1 -0.00623569 -0.00460747 -0.0108466 0.000656 -0.918013 -0.171923 -1.56652 2650 
3409 1 -0.00934854 -0.00341524 -0.0105517 0.000656 -0.487335 -0.0655462 -0.599216 2650 
2820 1 -0.007052 -0.00291133 -0.010962 0.000116 0 -0.011753 0 2650 
3265 1 -0.006001 -0.00292333 -0.010684 0.000116 0 -0.011753 0 2650 
4373 1 -0.004239 -0.00190533 -0.010869 4.2e-05 0 -0.011753 0 2650 
3426 1 -0.000993313 -0.00216725 -0.0105772 0.000423 -0.000402393 -0.0123419 -0.000971192 2650 
2848 1 -0.010456 -0.00087033 -0.010698 4.2e-05 0 -0.011753 0 2650 
3640 1 -0.00953747 -0.00115669 -0.0103885 0.000423 0.0106565 -0.0526658 0.0459604 2650 
3603 1 -0.004768 -0.00156733 -0.010424 0.000116 0 -0.011753 0 2650 
15 1 -0.001892 -0.00151433 -0.010407 0.000423 0 -0.011753 0 2650 
250 1 -0.0108564 -0.000173249 -0.0105011 0.000423 -0.094958 -0.0322937 0.0593026 2650 
3093 1 -0.002889 -0.00027533 -0.010782 0.000423 0 -0.011753 0 2650 
2130 1 -0.000316 -0.00045033 -0.010491 0.000423 0 -0.011753 0 2650 
3960 1 -0.008634 3.76695e-05 -0.010875 0.000423 0 -0.011753 0 2650 
388 1 -0.008271 0.00063367 -0.010879 0.000116 0 -0.011753 0 2650 
3673 1 -0.00272 0.00057967 -0.010833 0.000423 0 -0.011753 0 2650 
3284 1 -0.001323 0.00060467 -0.010635 4.2e-05 0 -0.011753 0 2650 
1193 1 -4.3e-05 0.00011567 -0.010628 0.000116 0 -0.011753 0 2650 
3866 1 -0.0120722 0.00112745 -0.0103133 0.000423 -0.0857982 0.0113055 0.0171818 2650 
3311 1 -0.0112456 0.000929812 -0.0105479 0.000423 -0.0650439 0.00528558 0.0067638 2650 
2542 1 -0.005905 0.00091867 -0.010347 0.000423 0 -0.011753 0 2650 
3530 1 -0.000573 0.00107467 -0.010526 0.000423 0 -0.011753 0 2650 
1233 1 -0.012882 0.00223367 -0.010287 0.000423 0 -0.011753 0 2650 
4104 1 -0.009745 0.00299267 -0.010868 0.000423 0 -0.011753 0 2650 
124 1 -0.005032 0.00313267 -0.01051 0.000423 0 -0.011753 0 2650 
497 1 -0.00574 0.00322767 -0.010398 0.000116 0 -0.011753 0 2650 
1192 1 -0.004051 0.00345167 -0.010435 0.000116 0 -0.011753 0 2650 
3201 1 -0.00230646 0.00369986 -0.0109905 0.000423 0.0982966 0.0107837 0.0662699 2650 
3235 1 -0.00657713 0.00438792 -0.0104317 0.000423 -0.00988696 -0.0212582 0.0528137 2650 
3380 1 -0.00454966 0.00464806 -0.0106848 0.000116 0.216567 -0.0280292 -0.31276 2650 
2912 1 -0.006578 0.00539467 -0.010859 0.000116 0 -0.011753 0 2650 
3787 1 -0.006362 0.00583067 -0.010668 0.000116 0 -0.011753 0 2650 
760 1 -0.006943 0.00616767 -0.010573 4.2e-05 0 -0.011753 0 2650 
861 1 -0.006339 0.00634167 -0.010358 0.000116 0 -0.011753 0 2650 
2326 1 -0.0118057 0.00711523 -0.0107209 0.000423 0.00434717 -0.0219119 0.00771378 2650 
2500 1 -0.010648 0.00771667 -0.010771 0.000116 0 -0.011753 0 2650 
4166 1 -0.00421272 0.0078275 -0.0105305 0.000656 -0.000473877 -0.0124048 -0.000834416 2650 
2948 1 -0.002008 0.00753367 -0.010384 0.000116 0 -0.011753 0 2650 
3727 1 -0.004412 0.00847167 -0.010287 4.2e-05 0 -0.011753 0 2650 
1935 1 -0.00424259 0.00860754 -0.0106841 0.000116 -0.0496311 0.00727001 0.00060962 2650 
3456 1 -0.00346178 0.0085813 -0.0107291 0.000423 -0.000997028 -0.0111859 -0.00366568 2650 
1010 1 -0.011662 0.00972967 -0.010903 0.000423 0 -0.011753 0 2650 
3132 1 -0.007716 0.00979267 -0.01033 0.000116 0 -0.011753 0 2650 
1376 1 -0.009927 0.0110317 -0.010971 0.000116 0 -0.011753 0 2650 
2097 1 -0.00889 0.0102857 -0.010395 0.000656 0 -0.011753 0 2650 
89 1 -0.003936 0.0103377 -0.010466 0.000116 0 -0.011753 0 2650 
2759 1 -0.011495 0.0112857 -0.010915 0.000656 0 -0.011753 0 2650 
2261 1 -0.007381 0.0113827 -0.010514 0.000116 0 -0.011753 0 2650 
233 1 -0.004974 0.0116187 -0.010958 0.000423 0 -0.011753 0 2650 
4167 1 -0.003538 0.0117257 -0.010916 0.000656 0 -0.011753 0 2650 
2260 1 -0.008542 0.0120037 -0.010892 0.000116 0 -0.011753 0 2650 
1802 1 -0.004638 0.0123787 -0.010282 0.000423 0 -0.011753 0 2650 
499 1 -0.011613 0.0127537 -0.010379 0.000116 0 -0.011753 0 2650 
1754 1 -0.008854 0.0128597 -0.010611 4.2e-05 0 -0.011753 0 2650 
1913 1 -0.008189 0.0129937 -0.010954 0.000423 0 -0.011753 0 2650 
3899 1 -0.004387 0.0128777 -0.010427 0.000116 0 -0.011753 0 2650 
3595 1 -0.007357 0.0135627 -0.010628 0.000116 0 -0.011753 0 2650 
3767 1 -0.006013 0.0134787 -0.010843 0.000423 0 -0.011753 0 2650 
963 1 -0.000669 0.0135417 -0.010387 0.000116 0 -0.011753 0 2650 
2722 1 -0.0115242 0.025697 -0.0103996 0.000116 -0.0715147 0.365051 0.247857 2650 
1312 1 -0.0230233 -0.00395766 -0.00967762 4.2e-05 -3.49203 -0.0904002 -1.46784 2650 
1068 1 -0.0111663 -0.00326831 -0.00966046 0.000116 0.0038791 -0.0564675 -0.00494316 2650 
3652 1 -0.0113554 -0.00273475 -0.00960421 0.000423 -0.025045 -0.0550861 -0.00545894 2650 
4285 1 -0.0102251 -0.00291363 -0.0101219 0.000423 -0.238497 0.0555366 -0.0394863 2650 
3933 1 -0.006596 -0.00220433 -0.009623 0.000116 0 -0.011753 0 2650 
4306 1 -0.0117694 -0.00103258 -0.00975417 0.000423 -0.11234 0.0471428 -0.0463662 2650 
417 1 -0.004944 -0.00083833 -0.009884 0.000116 0 -0.011753 0 2650 
939 1 -0.001916 -0.00114833 -0.009682 0.000116 0 -0.011753 0 2650 
1630 1 -0.00227 -0.00108333 -0.00958 0.000116 0 -0.011753 0 2650 
3196 1 -0.00672586 -0.000601072 -0.00974277 0.000423 0.0418395 0.00921167 -0.158288 2650 
3460 1 -0.013084 2.16695e-05 -0.009951 0.000116 0 -0.011753 0 2650 
2778 1 -0.01202 0.00028667 -0.00976 0.000423 0 -0.011753 0 2650 
3756 1 -0.0107475 0.000417834 -0.00976042 0.000423 -0.117965 0.0102938 0.0627101 2650 
1562 1 -0.002141 0.00068667 -0.010154 0.000423 0 -0.011753 0 2650 
2164 1 -0.012835 0.00155167 -0.009898 0.000116 0 -0.011753 0 2650 
1750 1 -0.0115202 0.000928871 -0.0101705 4.2e-05 -0.0339763 -0.0109217 0.0389988 2650 
281 1 -0.0104802 0.0012784 -0.00963466 0.000116 -0.0710546 0.0438983 0.0664225 2650 
1160 1 -0.0102611 0.00153048 -0.0102195 0.000116 -0.0234924 0.0511302 -0.0170349 2650 
3264 1 -0.003542 0.00111567 -0.010108 0.000116 0 -0.011753 0 2650 
800 1 -0.00114 0.00140567 -0.009738 0.000423 0 -0.011753 0 2650 
2975 1 -0.011752 0.00216467 -0.009985 0.000656 0 -0.011753 0 2650 
4374 1 -0.008921 0.00229967 -0.009568 4.2e-05 0 -0.011753 0 2650 
3250 1 -0.008233 0.00227267 -0.010036 0.000116 0 -0.011753 0 2650 
3135 1 -0.00038 0.00208167 -0.010152 0.000116 0 -0.011753 0 2650 
3832 1 -0.01255 0.00253367 -0.009616 4.2e-05 0 -0.011753 0 2650 
3324 1 -0.0116234 0.00383046 -0.00967952 0.000423 -0.0148526 -0.0100043 0.0122397 2650 
1977 1 -0.006037 0.00354267 -0.009842 4.2e-05 0 -0.011753 0 2650 
364 1 -0.008943 0.00450267 -0.009746 0.000423 0 -0.011753 0 2650 
3790 1 -0.012918 0.00547367 -0.010098 0.000116 0 -0.011753 0 2650 
3031 1 -0.011934 0.00504267 -0.00971 0.000116 0 -0.011753 0 2650 
2474 1 -0.001928 0.00488667 -0.009724 0.000423 0 -0.011753 0 2650 
3116 1 -0.01058 0.00554367 -0.009568 0.000423 0 -0.011753 0 2650 
4256 1 -0.007946 0.00623667 -0.010197 0.000116 0 -0.011753 0 2650 
958 1 -0.00128129 0.00608021 -0.00980224 0.000116 -0.112936 0.0629473 -0.172921 2650 
3364 1 -0.006241 0.00633567 -0.010015 0.000116 0 -0.011753 0 2650 
1310 1 -0.011355 0.00759567 -0.010263 4.2e-05 0 -0.011753 0 2650 
3071 1 -0.009089 0.00840067 -0.009836 4.2e-05 0 -0.011753 0 2650 
2581 1 -0.004751 0.00939767 -0.01 0.000423 0 -0.011753 0 2650 
2344 1 -0.001557 0.0102987 -0.009839 0.000423 0 -0.011753 0 2650 
3361 1 -5.4e-05 0.0105477 -0.010103 0.000116 0 -0.011753 0 2650 
301 1 -0.005514 0.0114367 -0.009906 0.000116 0 -0.011753 0 2650 
660 1 -0.002925 0.0118777 -0.009723 4.2e-05 0 -0.011753 0 2650 
1827 1 -0.000405 0.0123827 -0.009578 0.000116 0 -0.011753 0 2650 
3784 1 -0.00924025 0.0127641 -0.00997735 0.000116 -0.0748727 0.0872127 -0.0809338 2650 
1087 1 -0.005985 0.0126897 -0.009545 0.000116 0 -0.011753 0 2650 
2781 1 -0.00331028 0.0127888 -0.0100069 0.000423 -0.0117237 -0.0176724 0.00043508 2650 
3859 1 -0.00376724 0.0144178 -0.0100281 0.000423 0.00372335 0.165084 -0.269465 2650 
1026 1 -0.00221588 0.0246667 -0.00970256 0.000423 -0.376135 0.353379 -0.383847 2650 
2846 1 -0.006122 -0.00329033 -0.009068 4.2e-05 0 -0.011753 0 2650 
1735 1 -0.00247032 -0.00319343 -0.00916941 0.000116 0.0763613 -0.0562976 -0.109286 2650 
1787 1 -0.012291 -0.00191833 -0.008935 0.000423 0 -0.011753 0 2650 
661 1 -0.00857036 -0.00212833 -0.00871673 0.000656 -0.0248865 -0.0346178 0.0286859 2650 
756 1 -0.007322 -0.00193933 -0.009147 0.000116 0 -0.011753 0 2650 
1690 1 -0.004681 -0.00080233 -0.00917 0.000423 0 -0.011753 0 2650 
3393 1 -0.006109 -0.00067933 -0.008736 4.2e-05 0 -0.011753 0 2650 
159 1 -0.005821 -6.73305e-05 -0.009096 0.000423 0 -0.011753 0 2650 
2219 1 -0.00853957 0.000133317 -0.00875546 0.000423 -0.00486247 0.0285158 -0.118086 2650 
608 1 -0.01048 0.00224567 -0.008875 0.000116 0 -0.011753 0 2650 
193 1 -0.010056 0.00168667 -0.009264 0.000116 0 -0.011753 0 2650 
2299 1 -0.003792 0.00213967 -0.009457 4.2e-05 0 -0.011753 0 2650 
1121 1 -0.002698 0.00235767 -0.00928 0.000423 0 -0.011753 0 2650 
3450 1 -0.011877 0.00247567 -0.008756 0.000423 0 -0.011753 0 2650 
1184 1 -0.011934 0.00272767 -0.00927 0.000116 0 -0.011753 0 2650 