ITEM: TIMESTEP
7321044
ITEM: NUMBER OF ATOMS
4360
ITEM: BOX BOUNDS ff ff ff
-0.15 0.15
-0.15 0.06
-0.15 0.15
ITEM: ATOMS id type x y z radius vx vy vz density 
1943 1 -0.133295 -0.0193807 -0.0273566 0.000116 -10.5373 0.0754104 3.47097 2650 
3945 1 -0.0565122 -0.0648658 -0.0736412 4.2e-05 -9.35728 -0.472597 -0.748291 2650 
1135 1 -0.00181541 -0.0500764 -0.0685546 0.000423 -6.25074 -0.0763906 0.143188 2650 
3252 1 -0.00921695 -0.0483904 -0.0682652 0.000116 -6.1431 0.127739 0.821183 2650 
3360 1 -0.0174957 -0.0479513 -0.0666246 0.000116 -7.02261 0.0742825 1.86664 2650 
323 1 -0.0201285 -0.0570621 -0.0659419 4.2e-05 -8.22351 0.583914 2.53522 2650 
1550 1 -0.0311493 -0.0526829 -0.0608354 0.000656 -4.93771 0.492834 2.55242 2650 
2700 1 -0.0375058 -0.048605 -0.0577779 0.000116 -6.79088 0.178066 4.40365 2650 
3753 1 -0.0454207 -0.0482203 -0.0513804 0.000423 -3.59986 -0.532772 3.16252 2650 
947 1 -0.0478756 -0.0535883 -0.0495276 0.000116 -3.72915 -0.931714 3.60299 2650 
1320 1 -0.0494348 -0.0490683 -0.0480736 4.2e-05 -5.30939 0.765244 5.43092 2650 
2066 1 -0.0514629 -0.0574519 -0.0457821 0.000116 -3.30712 -0.553629 3.71018 2650 
3946 1 -0.0582308 -0.0522144 -0.0369371 4.2e-05 -3.65229 -0.084802 5.7445 2650 
3038 1 -0.0582012 -0.0516734 -0.0368459 0.000116 -2.88257 0.152584 4.58163 2650 
2177 1 -0.0616621 -0.0599273 -0.0307048 0.000116 -3.81128 0.543156 7.68103 2650 
1841 1 -0.0645699 -0.0547756 -0.0239765 0.000116 -2.22559 0.241691 5.98915 2650 
1721 1 -0.0672373 -0.0527256 -0.0149709 0.000116 -1.91479 -0.728424 8.6029 2650 
4009 1 -0.0688789 -0.0593942 -0.000807661 0.000116 -0.109188 0.348877 5.72511 2650 
669 1 -0.0680815 -0.0552613 0.00600739 0.000656 0.525336 -0.125496 6.19701 2650 
4220 1 -0.0632493 -0.0522125 0.027286 0.000116 2.71275 -0.369539 6.26222 2650 
3079 1 -0.0579602 -0.0475971 0.0362186 0.000656 3.73218 0.0092336 5.96055 2650 
1206 1 -0.0571937 -0.0545996 0.0385238 4.2e-05 3.04791 -0.204525 4.5265 2650 
4025 1 -0.0567223 -0.0529376 0.0390856 0.000116 3.15095 0.113551 4.53517 2650 
2042 1 -0.055579 -0.0542141 0.0406949 0.000116 2.50932 -0.567641 3.38172 2650 
4187 1 -0.050704 -0.0451421 0.0461742 0.000423 4.46543 0.0540154 4.92231 2650 
1462 1 -0.0484647 -0.0481801 0.0485125 0.000423 4.95878 0.165793 5.07537 2650 
3409 1 -0.0443357 -0.0494318 0.0520019 0.000656 5.35978 -0.115546 4.54535 2650 
3090 1 -0.0418657 -0.0454714 0.0543156 0.000423 4.01393 -0.073229 3.13178 2650 
51 1 -0.0316034 -0.0495035 0.0608625 0.000423 5.41223 -0.222932 2.81633 2650 
2708 1 -0.0298077 -0.0561936 0.0621009 0.000116 4.41458 -0.248123 2.0877 2650 
1568 1 -0.0208283 -0.0522747 0.0653382 0.000423 5.27679 -0.0721379 1.67697 2650 
1256 1 -0.00938003 -0.0620299 0.0678393 0.000423 4.83487 0.0599918 0.820973 2650 
3000 1 -0.00637163 -0.052422 0.0682807 0.000423 5.86515 0.146016 0.524521 2650 
2822 1 -0.00458556 -0.0312101 -0.0687305 0.000116 -5.5479 -0.51381 0.375965 2650 
437 1 -0.00218807 -0.00864877 -0.0689239 4.2e-05 -3.28817 -0.180358 0.0904485 2650 
3850 1 -0.000635287 -0.0419181 -0.0685748 0.000423 -6.25132 -0.223378 0.0534418 2650 
4251 1 -0.0116313 -0.0351478 -0.0678952 0.000116 -6.03923 -0.360169 1.03454 2650 
1794 1 -0.00762926 -0.0278822 -0.0681527 0.000423 -5.90365 -0.141295 0.64019 2650 
1363 1 -0.00704989 -0.0271779 -0.0682147 0.000423 -6.10067 0.231471 0.646736 2650 
2361 1 -0.00269327 -0.0257068 -0.0685222 0.000423 -5.64539 0.21372 0.196373 2650 
3874 1 -0.00146759 -0.0247085 -0.0685593 0.000423 -5.6438 0.22596 0.119943 2650 
4106 1 -0.000333195 -0.0250578 -0.0685759 0.000423 -5.62699 0.160864 0.0543761 2650 
3878 1 -0.00566506 -0.0238137 -0.0683435 0.000423 -5.62383 -0.23169 0.474481 2650 
636 1 -0.0115309 -0.013114 -0.0679123 0.000116 -6.09765 0.0856612 1.03566 2650 
2965 1 -0.00755172 -0.0109415 -0.068544 4.2e-05 -5.07488 0.623092 0.539531 2650 
3647 1 -0.00435893 -0.00278283 -0.0684389 0.000423 -6.03052 -0.312148 0.390237 2650 
483 1 -0.0114551 -0.0399866 -0.0676144 0.000423 -6.24524 -0.0768904 1.04673 2650 
1555 1 -0.0122482 -0.0334038 -0.0674752 0.000423 -6.16227 -0.222947 1.16176 2650 
1136 1 -0.0130242 -0.0252973 -0.0673299 0.000423 -6.06447 -0.0144541 1.19179 2650 
2349 1 -0.0114268 -0.0228431 -0.0676192 0.000423 -6.01837 -0.121435 0.998234 2650 
4142 1 -0.013495 -0.0141263 -0.067549 0.000116 -4.72783 0.0906569 0.937911 2650 
807 1 -0.0176217 -0.0230884 -0.0662736 0.000423 -5.91462 -0.0966212 1.50313 2650 
1669 1 -0.0169665 -0.0225818 -0.0664448 0.000423 -6.09003 0.0578847 1.53646 2650 
854 1 -0.017381 -0.0215286 -0.0666542 0.000116 -6.21224 0.411339 1.62661 2650 
2998 1 -0.0155212 -0.0216377 -0.0667986 0.000423 -6.05736 -0.158963 1.38403 2650 
228 1 -0.0144672 -0.021366 -0.0667963 0.000656 -6.04111 -0.167896 1.31124 2650 
2308 1 -0.0169512 -0.0202162 -0.0667497 4.2e-05 -11.7309 -0.35169 3.61962 2650 
710 1 -0.0157333 -0.0190003 -0.0667488 0.000423 -6.07894 -0.0463427 1.43289 2650 
811 1 -0.0149792 -0.0174313 -0.0669219 0.000423 -5.53329 0.144181 1.2372 2650 
1336 1 -0.0158493 -0.014621 -0.0667215 0.000423 -5.38894 0.0753214 1.30152 2650 
877 1 -0.0186687 -0.00973302 -0.0663584 4.2e-05 -4.99878 -0.933841 1.32842 2650 
2343 1 -0.0196302 -0.0263721 -0.0656822 0.000423 -6.08057 -0.014001 1.80629 2650 
3531 1 -0.0198974 -0.0255679 -0.0656124 0.000423 -6.01936 0.0062235 1.83257 2650 
3933 1 -0.0211358 -0.0122923 -0.0655535 0.000116 -6.15025 0.136101 2.07019 2650 
3642 1 -0.0222023 -0.0239795 -0.0648822 0.000423 -5.99112 -0.0949185 2.04134 2650 
1994 1 -0.0212063 -0.0150278 -0.0652163 0.000423 -4.07331 -0.102048 1.27281 2650 
3583 1 -0.0225367 -0.0139608 -0.0650785 0.000116 -5.73786 0.148852 1.98359 2650 
1938 1 -0.0225499 -0.00982213 -0.0650811 0.000116 -4.23373 -0.116313 1.46041 2650 
3372 1 -0.0249531 -0.0340017 -0.0642012 0.000116 -5.90803 -0.029938 2.31035 2650 
1104 1 -0.0227792 -0.026549 -0.0644291 0.000656 -6.02902 -0.0681335 2.16332 2650 
1560 1 -0.0239148 -0.0259346 -0.0642708 0.000423 -6.00778 0.0576113 2.2864 2650 
3918 1 -0.0250654 -0.0105611 -0.0641587 0.000116 -4.21111 -0.382974 1.67459 2650 
2317 1 -0.0245263 -0.0438482 -0.0637931 0.000656 -7.24593 -0.0344784 2.79141 2650 
3622 1 -0.0244306 -0.0370786 -0.0638302 0.000656 -6.24815 -0.128161 2.3937 2650 
2690 1 -0.0261206 -0.0342545 -0.0634065 0.000423 -5.13409 0.365258 2.10937 2650 
1325 1 -0.0242968 -0.0247477 -0.0638807 0.000656 -6.02482 0.0427526 2.30289 2650 
121 1 -0.0252642 -0.0238375 -0.0635051 0.000656 -6.05875 -0.0172447 2.42817 2650 
833 1 -0.0262391 -0.0233639 -0.0636899 0.000116 -5.89818 -0.0927384 2.42935 2650 
3174 1 -0.0277618 -0.00251931 -0.0631226 4.2e-05 -5.96247 -0.193279 2.61299 2650 
1296 1 -0.0277238 -0.0263649 -0.0630588 0.000116 -5.3341 -1.28688 2.33426 2650 
2000 1 -0.0281982 -0.0187367 -0.0625114 0.000423 -5.28119 -0.0272237 2.378 2650 
762 1 -0.0295263 -0.0172933 -0.0623167 4.2e-05 -4.88939 -0.803425 2.31104 2650 
322 1 -0.028323 -0.0111114 -0.0628732 4.2e-05 -3.06085 -0.190401 1.37572 2650 
4098 1 -0.0274076 -0.0111645 -0.0628636 0.000423 -3.65007 -0.114659 1.57567 2650 
2460 1 -0.0268718 -0.00527003 -0.0630937 0.000423 -4.77862 0.11226 2.01082 2650 
1175 1 -0.0307149 -0.0403611 -0.0616569 0.000116 -5.04993 -0.806607 2.50871 2650 
2663 1 -0.0291433 -0.0388245 -0.062077 0.000423 -5.70673 0.226851 2.67467 2650 
2112 1 -0.029679 -0.0331932 -0.0618238 0.000423 -5.52097 0.107251 2.62794 2650 
2086 1 -0.0303862 -0.0123906 -0.0619026 4.2e-05 -3.15296 -0.167552 1.53579 2650 
3543 1 -0.0298645 -0.0120598 -0.0617348 0.000423 -5.48968 0.0184481 2.68497 2650 
1523 1 -0.0297827 -0.0113656 -0.0620893 0.000116 -4.00432 1.26073 1.76905 2650 
3135 1 -0.0304008 -0.00349318 -0.0618126 0.000116 -4.73871 0.0113315 2.31852 2650 
4036 1 -0.0323558 -0.0243789 -0.0608116 0.000116 -5.28597 0.618641 2.81407 2650 
175 1 -0.0326669 -0.0414419 -0.060646 0.000116 -5.49583 -0.228368 2.95996 2650 
632 1 -0.0332165 -0.0234401 -0.0603462 0.000116 -4.65001 0.140817 2.53694 2650 
146 1 -0.03202 -0.0224347 -0.0606436 0.000423 -5.09725 0.286624 2.66043 2650 
843 1 -0.0332983 -0.0213439 -0.0603009 0.000116 -4.60659 0.416887 2.56933 2650 
1675 1 -0.0320242 -0.0165578 -0.0606412 0.000423 -5.78812 -0.178069 3.05087 2650 
295 1 -0.0331649 -0.0155889 -0.0603745 0.000116 -5.80178 -0.0184563 3.18641 2650 
1387 1 -0.0332653 -0.00965656 -0.0603201 0.000116 -5.33238 0.207855 2.91946 2650 
1424 1 -0.0265706 -0.00550645 -0.0602053 4.2e-05 -2.67052 -0.0252929 1.15348 2650 
378 1 -0.0337338 -0.0147564 -0.0597074 0.000423 -4.82025 -0.189703 2.70792 2650 
786 1 -0.0342894 -0.0116916 -0.0593905 0.000423 -5.43913 0.0720915 3.12064 2650 
2430 1 -0.0354022 -0.0297823 -0.0584625 0.000656 -5.19163 -0.103781 3.1091 2650 
4048 1 -0.0362765 -0.0132024 -0.0586449 4.2e-05 -3.13316 -0.115013 1.94995 2650 
1012 1 -0.0350337 -0.0061498 -0.0589541 0.000423 -4.26563 0.0955367 2.52792 2650 
3261 1 -0.0355488 -0.00430935 -0.0590025 0.000116 -5.7679 -0.579416 3.4917 2650 
661 1 -0.0368585 -0.0310476 -0.0575566 0.000656 -5.54806 -0.0439231 3.56156 2650 
1002 1 -0.0364427 -0.0174904 -0.0578201 0.000656 -4.96326 -0.0956782 3.14565 2650 
3679 1 -0.0372958 -0.0148139 -0.0579133 0.000116 -4.61121 0.543074 2.96805 2650 
3978 1 -0.036496 -0.0137384 -0.0580601 0.000423 -4.664 -0.153687 3.00527 2650 
2848 1 -0.0377374 -0.00319345 -0.0577152 4.2e-05 -3.50572 -0.0698364 2.29046 2650 
3118 1 -0.0386694 -0.0384097 -0.056634 0.000423 -4.74183 -0.147163 3.21454 2650 
204 1 -0.0398036 -0.0263304 -0.0562112 0.000116 -6.18056 -0.507022 4.34897 2650 
2576 1 -0.0392508 -0.0256501 -0.056232 0.000423 -5.47216 -0.162554 3.74776 2650 
3527 1 -0.0393626 -0.0185662 -0.0561522 0.000423 -4.75404 -0.212056 3.27118 2650 
2800 1 -0.0387126 -0.0182602 -0.0566043 0.000423 -4.74809 -0.26556 3.23331 2650 
4095 1 -0.040185 -0.0230405 -0.0555587 0.000423 -4.75527 -0.00712518 3.42743 2650 
601 1 -0.0414896 -0.0218293 -0.0546033 0.000423 -5.05072 -0.0959317 3.81303 2650 
1877 1 -0.0404722 -0.0216119 -0.0550744 0.000656 -5.47991 -0.0190554 4.08027 2650 
406 1 -0.042 -0.017713 -0.054595 0.000116 -4.56222 -0.1455 3.5412 2650 
27 1 -0.0425272 -0.0251286 -0.0537991 0.000423 -4.83164 -0.119443 3.76659 2650 
1646 1 -0.0432303 -0.0146558 -0.0537193 4.2e-05 -4.30545 -0.318514 3.38741 2650 
2817 1 -0.00535014 -0.00452974 -0.0540728 0.000116 -0.80843 -0.135032 -8.19562 2650 
3153 1 -0.0435279 -0.00547648 -0.0533776 0.000116 -2.58847 -0.102624 2.07589 2650 
14 1 -0.044527 -0.0303724 -0.0521483 0.000423 -4.5334 -0.0634886 3.91131 2650 
2002 1 -0.0438872 -0.0221168 -0.0526952 0.000423 -4.78753 -0.063421 3.99503 2650 
3443 1 -0.0446349 -0.019339 -0.0520634 0.000423 -4.47278 0.02155 3.8443 2650 
1372 1 -0.0459079 -0.0307099 -0.0509449 0.000423 -4.5339 -0.113401 4.05901 2650 
476 1 -0.0462798 -0.0223048 -0.0506076 0.000423 -4.55792 -0.152312 4.15109 2650 
1587 1 -0.0464506 -0.0166988 -0.0504491 0.000423 -4.38559 -0.10871 4.00513 2650 
3041 1 -0.0477533 -0.0184313 -0.0496447 0.000116 -4.4974 -0.387647 4.34872 2650 
3947 1 -0.0471384 -0.0264731 -0.0494905 0.000656 -4.42993 0.129942 4.21439 2650 
1912 1 -0.0479964 -0.0237723 -0.0489829 0.000423 -4.48561 -0.190245 4.39952 2650 
4020 1 -0.0485094 -0.00397144 -0.0489065 0.000116 -3.46453 0.0333169 3.47336 2650 
312 1 -0.0488797 -0.0417987 -0.0485363 0.000116 -5.38628 1.19682 5.41556 2650 
1878 1 -0.0482369 -0.0381132 -0.0484182 0.000656 -4.86237 -0.0584994 4.83804 2650 
2166 1 -0.0487207 -0.00973927 -0.048697 0.000116 -4.35941 0.231494 4.35339 2650 
3482 1 -0.0494935 -0.0347163 -0.0479107 0.000116 -3.98108 -0.0928027 4.10224 2650 
3505 1 -0.049471 -0.00453861 -0.0480397 4.2e-05 -2.24038 -0.0537545 2.28466 2650 
3376 1 -0.0504653 -0.0335613 -0.0468863 0.000116 -3.71738 0.632948 3.99295 2650 
2835 1 -0.0505368 -0.0289969 -0.0468093 0.000116 -3.9178 -0.670436 4.22131 2650 
287 1 -0.0508202 -0.0268617 -0.046501 0.000116 -3.90934 -0.123336 4.26609 2650 
1383 1 -0.0505323 -0.0112384 -0.0468144 0.000116 -3.86199 -0.135661 4.16785 2650 
3534 1 -0.0509444 -0.0385493 -0.0459084 0.000423 -3.75934 0.0446267 4.17487 2650 
2545 1 -0.0514931 -0.0211151 -0.0452922 0.000423 -4.19907 -0.431031 4.74212 2650 
3540 1 -0.052577 -0.0304132 -0.04403 0.000423 -3.90105 0.050816 4.64269 2650 
2702 1 -0.053167 -0.0299317 -0.0437983 0.000116 -3.9217 0.0449683 4.77156 2650 
245 1 -0.0529557 -0.0255925 -0.0435735 0.000423 -4.32478 0.0241054 5.27211 2650 
2858 1 -0.0523647 -0.0247584 -0.0439215 0.000656 -4.37218 0.0237645 5.19594 2650 
1016 1 -0.0535005 -0.0284357 -0.0429018 0.000423 -3.80521 -0.0908342 4.72068 2650 
107 1 -0.0539402 -0.00845205 -0.042961 4.2e-05 -3.68725 0.0022752 4.60928 2650 
1068 1 -0.0542857 -0.0163128 -0.0424036 0.000116 -3.79651 -0.296297 4.86273 2650 
4309 1 -0.0547556 -0.0342579 -0.041288 0.000423 -3.69188 0.203054 4.90988 2650 
394 1 -0.0561913 -0.034328 -0.0398435 0.000116 -2.39869 -0.668701 3.40952 2650 
1813 1 -0.0557659 -0.026868 -0.0399137 0.000423 -3.28189 -0.49402 4.60197 2650 
1056 1 -0.057055 -0.0326687 -0.0385969 0.000116 -3.51544 -0.415118 5.17362 2650 
1408 1 -0.0565873 -0.0208923 -0.0392796 0.000116 -2.71624 -0.526613 3.88292 2650 
4229 1 -0.057368 -0.000352739 -0.038129 0.000116 -3.29927 -0.109572 4.9825 2650 
3066 1 -0.0578832 -0.0225178 -0.037479 4.2e-05 -3.27599 1.10461 5.05536 2650 
2837 1 -0.0584251 -0.0234763 -0.0364899 0.000116 -3.79688 -0.1257 6.0752 2650 
29 1 -0.0577538 -0.0175827 -0.0369699 0.000423 -2.94721 0.0492753 4.55206 2650 
4028 1 -0.0584979 -0.00326835 -0.0363636 0.000116 -2.97834 -0.393671 4.90434 2650 
3385 1 -0.0586355 -0.0334628 -0.0361511 0.000116 -3.2103 0.467915 5.23421 2650 
2599 1 -0.0589988 -0.013727 -0.0355385 0.000116 -2.25855 0.07154 3.69598 2650 
856 1 -0.0586588 -0.00791247 -0.0361102 0.000116 -3.08125 0.78734 5.31875 2650 
892 1 -0.0587472 -0.0231611 -0.0349272 0.000656 -3.70628 -0.129851 6.25726 2650 
2234 1 -0.0587814 -0.0189313 -0.0353225 0.000423 -2.48259 -0.137652 4.14068 2650 
4366 1 -0.0593614 -0.00595496 -0.0349233 0.000116 -3.06486 0.28378 5.24668 2650 
235 1 -0.0592429 -0.0262476 -0.0345434 0.000423 -3.17824 0.209391 5.43814 2650 
3652 1 -0.0593835 -0.0205594 -0.034302 0.000423 -3.64665 0.0422832 6.30118 2650 
3656 1 -0.0595724 -0.0197339 -0.0339723 0.000423 -3.05168 0.198362 5.29752 2650 
3734 1 -0.0600984 -0.0167376 -0.0325443 0.000656 -2.83049 -0.105547 5.25975 2650 
1468 1 -0.0604713 -0.0152608 -0.0323429 0.000423 -2.69374 0.189332 5.17321 2650 
2813 1 -0.0608452 -0.00439131 -0.032292 0.000116 -2.25363 -0.240165 4.17648 2650 
1197 1 -0.0605998 -0.00161198 -0.0327514 0.000116 -2.01255 -0.113403 3.7018 2650 
3331 1 -0.0608149 -0.036499 -0.031694 0.000423 -2.36748 0.146092 4.54155 2650 
3418 1 -0.0607057 -0.0188006 -0.0319014 0.000423 -2.38496 -0.511355 4.51978 2650 
1116 1 -0.0609632 -0.0353421 -0.0314091 0.000423 -2.51855 -0.302095 4.91869 2650 
1712 1 -0.0618542 -0.0204509 -0.0303176 0.000116 -3.48558 0.176247 7.12354 2650 
433 1 -0.0619113 -0.0140274 -0.0303651 4.2e-05 -2.08452 -0.241546 4.26375 2650 
1968 1 -0.0621102 -0.0271888 -0.0297882 0.000116 -2.25614 -1.02884 4.70485 2650 
2898 1 -0.0620622 -0.0248425 -0.0291758 0.000423 -2.07548 -0.257782 4.3639 2650 
2670 1 -0.0622937 -0.0326957 -0.0286786 0.000423 -2.60837 0.0333606 5.74653 2650 
2060 1 -0.0625918 -0.0241781 -0.0287613 0.000116 -2.23255 -0.73142 4.88031 2650 
3926 1 -0.0626583 -0.00843394 -0.0286191 0.000116 -1.82743 -0.35475 4.03548 2650 
2846 1 -0.0631537 -0.0105458 -0.0276925 4.2e-05 -2.5497 -0.434018 5.81418 2650 
2900 1 -0.0629017 -0.0109471 -0.0273209 0.000423 -2.05687 0.356193 4.81482 2650 
4177 1 -0.0633001 -0.0211569 -0.0263823 0.000423 -2.31376 -0.170057 5.48998 2650 
2818 1 -0.0641133 -0.0317218 -0.0251742 0.000116 -2.1462 -0.22879 5.37676 2650 
2620 1 -0.0639978 -0.00882046 -0.025483 0.000116 -1.81394 0.0845109 4.57843 2650 
1818 1 -0.0638789 -0.00303698 -0.0257769 0.000116 -1.70571 -0.274074 4.23015 2650 
3782 1 -0.0638879 -0.0021033 -0.0249249 0.000423 -1.68945 0.0323792 4.32687 2650 
1916 1 -0.064237 -0.0220568 -0.0240104 0.000423 -2.21644 -0.173368 5.90774 2650 
2976 1 -0.019953 -0.00501442 -0.0244813 0.000656 -3.11232 -0.149572 -3.82188 2650 
3464 1 -0.0644855 -0.00109241 -0.0242203 0.000116 -2.07897 0.523426 5.56005 2650 
3613 1 -0.064817 -0.00833982 -0.0235367 4.2e-05 -1.87311 0.421511 5.14412 2650 
3633 1 -0.0647598 -0.0297364 -0.0225521 0.000423 -1.84689 -0.0821696 5.47231 2650 
734 1 -0.0650729 -0.0248259 -0.0225807 0.000116 -1.66379 -0.363091 4.64805 2650 
3328 1 -0.064707 -0.0193658 -0.0227116 0.000423 -1.94999 -0.0947069 5.59885 2650 
3650 1 -0.0650339 -0.0288358 -0.0216798 0.000423 -1.92136 -0.104497 5.63784 2650 
2641 1 -0.0647976 -0.0224414 -0.0217209 0.000656 -2.12575 -0.000506623 6.29916 2650 
1606 1 -0.0653849 -0.0218246 -0.0216656 0.000116 -1.99357 0.601135 5.93698 2650 
4082 1 -0.06507 -0.0190203 -0.0216528 0.000423 -1.08026 -0.337152 3.28686 2650 
2038 1 -0.0653269 -0.00909579 -0.0218477 0.000116 -1.58651 -0.260683 4.70105 2650 
2183 1 -0.0656454 -0.0103729 -0.0208732 0.000116 -1.57591 -0.797239 4.94693 2650 
198 1 -0.0631509 -0.0208547 -0.019602 0.000116 2.38716 -0.00519461 8.79671 2650 
2081 1 -0.0660324 -0.016375 -0.0198715 4.2e-05 -1.16099 -0.995447 3.83331 2650 
3168 1 -0.0660547 -0.0153046 -0.0195388 0.000116 -1.49691 0.334655 5.08355 2650 
800 1 -0.0138152 -0.00955508 -0.0192256 0.000423 -1.59317 -1.09373 -2.12456 2650 
3547 1 -0.0665614 -0.0287199 -0.0165075 0.000423 -1.42048 0.0170027 5.73304 2650 
606 1 -0.000183 0.00259668 -0.016592 0.000116 0 -0.011753 0 2650 
188 1 -0.00141269 0.0108563 -0.0166212 0.000116 -0.0148612 0.0228045 0.00418427 2650 
4010 1 -0.00137562 0.0353212 -0.0166149 0.000116 -0.0944465 0.099748 0.0197066 2650 
612 1 -0.0670714 -0.00323698 -0.0156982 0.000116 -1.02187 0.0085719 4.36614 2650 
4263 1 -0.0669823 -0.00154181 -0.0163873 4.2e-05 -1.06606 0.138504 4.3046 2650 
736 1 -0.00499909 0.000251762 -0.0158763 0.000116 -0.0307431 -0.0170391 0.0144389 2650 
30 1 -0.000643085 0.000185938 -0.0163636 0.000423 -0.0136125 -0.0214967 0.00834717 2650 
2013 1 -0.00282855 0.00285349 -0.0160411 0.000423 -0.00154235 0.00221798 0.00156406 2650 
1679 1 -0.00376242 0.00318133 -0.016059 0.000423 -0.00447784 0.0157628 0.0025179 2650 
2283 1 -0.00351273 0.00343688 -0.0164744 0.000116 -0.00298791 0.00726947 0.00477792 2650 
2301 1 -0.004222 0.00436968 -0.016305 4.2e-05 0 -0.011753 0 2650 
3121 1 -0.00180417 0.0051267 -0.0162001 0.000423 0.0292552 0.00121421 5.81941e-05 2650 
978 1 -0.00418777 0.0066544 -0.0162459 0.000116 0.0180122 -0.00353228 -0.00159853 2650 
3934 1 -0.001977 0.00735868 -0.016218 0.000116 0 -0.011753 0 2650 
289 1 -0.00245 0.00970222 -0.0159512 0.000116 -0.0188061 -0.000940224 -0.0594549 2650 
1620 1 -0.000598648 0.0105158 -0.0159091 0.000116 0.0529387 0.0514306 -0.00503745 2650 
2713 1 -0.000746701 0.0116629 -0.0165321 0.000116 0.00037122 0.035974 0.00535071 2650 
2924 1 -0.00287709 0.0127826 -0.0161265 0.000116 -0.059039 0.0353164 0.00422158 2650 
3644 1 -0.00113163 0.0127332 -0.0163943 0.000423 -0.00432743 0.00711996 -0.0325914 2650 
4153 1 -0.0365374 -0.00394519 -0.0152638 0.000116 -5.33328 -0.0932789 -2.22333 2650 
2172 1 -0.00532276 -0.00157113 -0.0154724 0.000116 0.0554355 0.00150652 -0.0523356 2650 
509 1 -0.00709548 3.35665e-05 -0.0150029 0.000116 0.0208826 0.00735409 0.00387183 2650 
857 1 -0.000145275 0.00110805 -0.0150249 0.000116 -0.0623021 0.0193526 0.00200378 2650 
3239 1 -0.00466211 0.00160857 -0.0151019 0.000116 -0.0248133 -0.00752354 0.0120924 2650 
150 1 -0.00587018 0.0023938 -0.0151457 0.000423 -0.0551283 0.0175519 0.0264808 2650 
3637 1 -0.00431906 0.00282272 -0.0154841 0.000423 -0.0121297 0.0118194 -0.00377228 2650 
2399 1 -0.002418 0.00281068 -0.015541 0.000116 0 -0.011753 0 2650 
1388 1 -0.00282422 0.00531384 -0.0151427 0.000116 -0.039288 0.0021603 0.0169103 2650 
2793 1 -0.00128673 0.00601446 -0.015317 0.000423 0.0182843 0.0982975 0.0184189 2650 
2438 1 -0.00570215 0.00707111 -0.0151178 0.000423 -0.00364828 0.010897 0.00465106 2650 
1219 1 -1.27333e-05 0.00819947 -0.0153302 0.000656 0.0138985 0.0213446 0.00886424 2650 
3830 1 -0.006879 0.00891068 -0.015411 4.2e-05 0 -0.011753 0 2650 
233 1 -0.00464582 0.00938567 -0.0156664 0.000423 0.0114684 -0.00558491 0.0116559 2650 
86 1 -0.00271048 0.00941839 -0.0150287 0.000116 -0.0196067 0.0126222 0.000798653 2650 
2969 1 -0.00179223 0.00903836 -0.0150933 0.000656 -0.00770999 0.0181957 -4.77754e-05 2650 
3177 1 -0.000747901 0.00875992 -0.0156444 4.2e-05 0.00917698 -0.00185525 -0.00666376 2650 
1483 1 -0.000343609 0.00919524 -0.015643 0.000423 -0.00193306 0.0155452 -0.00835174 2650 
1617 1 -0.00208333 0.00993639 -0.0156372 0.000116 0.0304013 0.00375314 0.0183235 2650 
938 1 -0.00113193 0.0100206 -0.0154496 0.000116 -0.00972467 -0.0045752 -0.00099221 2650 
371 1 -0.000462026 0.0100612 -0.0155757 0.000423 -0.001438 0.00792253 -0.00823014 2650 
3007 1 -0.00194051 0.0111666 -0.015259 0.000423 -0.0135196 -0.00505473 -0.0280609 2650 
4231 1 -0.000692593 0.0173063 -0.0157785 0.000116 -0.0134934 0.0153003 0.0304581 2650 
2056 1 -0.00709089 0.0325697 -0.0152118 0.000116 -0.915344 -0.176675 0.37926 2650 
1173 1 -0.00655061 0.0500038 -0.0153943 0.000116 -0.133465 0.347815 0.0527719 2650 
186 1 -0.000949226 -0.00243561 -0.0143314 0.000116 -0.0548922 -0.0357269 0.0179676 2650 
2666 1 -0.00743053 -0.00217598 -0.0145451 0.000423 0.0434652 -0.0093168 0.0067076 2650 
1053 1 -0.007469 -0.00103132 -0.014946 0.000116 0 -0.011753 0 2650 
623 1 -0.00688384 0.000156303 -0.0142943 0.000116 -0.0192086 -0.00896372 0.0230222 2650 
1991 1 -0.00615571 0.000421219 -0.0148227 0.000656 -0.0195897 -0.00213105 0.00864983 2650 
676 1 -0.00375482 0.00209382 -0.014393 0.000423 -0.0247905 0.00447638 0.0282863 2650 
220 1 -0.00353814 0.00290659 -0.0145197 4.2e-05 0.00197382 0.00663681 0.00671825 2650 
3587 1 -0.0067737 0.00321007 -0.0143686 0.000116 -0.0152422 -0.0151231 -0.00566973 2650 
3365 1 -0.002315 0.00523668 -0.014552 0.000116 0 -0.011753 0 2650 
2918 1 -0.00780557 0.00572455 -0.0143679 0.000116 0.0149777 0.0131491 0.0124233 2650 
2313 1 -0.0043121 0.00690177 -0.0146462 0.000656 0.0121795 0.0249345 0.010824 2650 
963 1 -0.00692242 0.00714678 -0.0146863 0.000116 -0.0190241 0.000952492 0.0269479 2650 
2222 1 -0.000697989 0.00775357 -0.0142242 0.000423 -0.00549102 -0.00568171 -0.00117535 2650 
581 1 -0.00563224 0.008194 -0.0145396 0.000423 -0.000593495 -0.0101803 -0.00423903 2650 
1827 1 -0.00714504 0.0098931 -0.0145165 0.000116 0.0104858 0.011057 0.025833 2650 
1228 1 -0.00156092 0.0104065 -0.0149881 0.000423 -0.0026547 0.0243513 0.000515369 2650 
3669 1 -0.000147164 0.0103254 -0.0148142 0.000423 0.00311727 -0.00583333 -0.00141597 2650 
2643 1 -0.0033932 0.0285677 -0.0144 0.000656 -0.0823633 0.0688822 0.0201377 2650 
352 1 -0.00407888 0.0383401 -0.014468 0.000423 0.0736471 -0.159457 0.0441779 2650 
4245 1 -0.00797782 0.0481635 -0.0143053 0.000116 -0.108278 0.145073 0.0575558 2650 
694 1 -0.00158703 0.0552795 -0.0148768 0.000423 0.0939046 0.181508 -0.117107 2650 
2947 1 -0.0675869 -0.0204545 -0.013305 0.000116 -0.928317 0.578645 4.67898 2650 
822 1 -0.0671976 -0.011287 -0.0136916 0.000423 -1.03335 -0.148748 5.06621 2650 
2827 1 -0.00603499 -0.00225716 -0.0141719 0.000116 -0.0201753 -0.0226203 0.0017234 2650 
269 1 -0.000217424 -0.00204067 -0.0140614 0.000423 -0.0067037 -0.0325502 -0.00931701 2650 
1022 1 -0.00325288 -0.000976486 -0.0138921 0.000423 -0.00789737 0.00635626 0.0363748 2650 
2332 1 -0.00484627 -0.000226256 -0.0139096 0.000423 -0.0114447 -0.00779769 0.00753018 2650 
2922 1 -0.0070283 0.00141474 -0.0141092 0.000116 -0.00925852 -0.000802711 0.00675368 2650 
2512 1 -0.00864167 0.00343799 -0.0135618 0.000116 0.018779 -0.0192413 0.00230208 2650 
1171 1 -0.00807838 0.00367656 -0.0136226 0.000116 0.0131753 -0.0110464 0.0150896 2650 
1032 1 -0.00692568 0.00351132 -0.0139224 0.000423 0.0299121 -0.00820922 0.0127278 2650 
2913 1 -0.00843933 0.00569734 -0.0135473 0.000116 -0.0140945 -0.0228944 -0.00540615 2650 
4227 1 -0.000604634 0.00610317 -0.0139264 0.000116 0.00143204 -0.0228975 -0.0290312 2650 
2322 1 -0.00878381 0.00670436 -0.0134895 0.000656 -0.00551701 -0.0136996 -0.00131915 2650 
1288 1 -0.002467 0.00653968 -0.014044 0.000116 0 -0.011753 0 2650 
1618 1 -0.00964387 0.0078434 -0.01373 0.000116 -0.0183777 -0.0158905 0.00601569 2650 
3515 1 -0.00768423 0.00738704 -0.0139944 0.000656 -0.00992584 -0.00969715 0.00139059 2650 
1237 1 -0.00940241 0.00859975 -0.0135013 0.000423 0.00185642 0.0116668 0.000957015 2650 
4190 1 -0.0086856 0.00865724 -0.0139848 0.000423 0.00475473 0.00488139 -0.00345892 2650 
4257 1 -0.00778804 0.00816285 -0.0138823 0.000116 0.000708835 -0.0033452 0.00987879 2650 
1769 1 -0.0070807 0.00863433 -0.0137516 0.000656 -0.0120334 -0.000961407 -0.0081542 2650 
2092 1 -0.0052522 0.00905046 -0.0134734 0.000656 -0.0434988 0.00182259 -0.0432859 2650 
1476 1 -0.00707835 0.00980977 -0.013435 0.000423 -0.00430855 0.00299287 4.96068e-07 2650 
1409 1 -0.00044 0.0103197 -0.013868 0.000116 0 -0.011753 0 2650 
478 1 -0.00697956 0.0151321 -0.0139062 0.000423 0.0184535 0.00116934 0.020279 2650 
3525 1 -0.0674012 -0.00357118 -0.0126516 0.000423 -0.811993 0.0273121 4.30217 2650 
222 1 -0.00305288 -0.00101721 -0.0127012 0.000656 -0.0154066 -0.0201332 0.053235 2650 
3551 1 -0.00720723 0.000510052 -0.0127436 0.000423 -0.015336 0.00523015 0.00637389 2650 
4126 1 -0.00602376 0.000535612 -0.0130709 0.000116 -0.0261531 0.0084042 0.00402279 2650 
2525 1 -0.004063 0.000766684 -0.013231 4.2e-05 0 -0.011753 0 2650 
545 1 -0.00172473 0.00125589 -0.0133104 4.2e-05 0.0164356 0.0574887 0.091312 2650 
2609 1 -0.00886 0.00230668 -0.013248 0.000116 0 -0.011753 0 2650 
3733 1 -0.00759396 0.0019429 -0.0130175 0.000656 -0.023221 0.0173181 0.0154659 2650 
3477 1 -0.00609664 0.00190455 -0.012793 0.000116 0.0616358 -0.0139442 -0.0219299 2650 
2619 1 -0.005851 0.00158268 -0.012854 0.000116 0 -0.011753 0 2650 
3880 1 -0.010277 0.00249868 -0.012913 0.000423 0 -0.011753 0 2650 
4165 1 -0.00517517 0.00256338 -0.0133504 0.000656 -6.3943e-05 -0.032131 0.00827285 2650 
3917 1 -0.003984 0.00306768 -0.012703 0.000116 0 -0.011753 0 2650 
2059 1 -0.003583 0.00327668 -0.012756 0.000116 0 -0.011753 0 2650 
3316 1 -0.00918816 0.00395724 -0.0127126 0.000423 -0.00544519 -0.0183171 -0.00879554 2650 
1192 1 -0.00595834 0.00451737 -0.0131478 0.000116 -0.0160738 0.0171838 -0.0228619 2650 
2912 1 -0.00553205 0.00549423 -0.0131878 0.000116 0.00196064 0.0151142 0.00117299 2650 
3446 1 -0.00177306 0.00495338 -0.0128059 0.000423 0.014297 -0.016402 -0.00312272 2650 
4078 1 -0.0101487 0.00586415 -0.0127283 0.000423 -0.0247982 -0.000713085 -0.00713512 2650 
3950 1 -0.00711221 0.00597573 -0.0133128 0.000656 0.000588401 -0.011021 0.0254098 2650 
1427 1 -0.002948 0.00560768 -0.013376 4.2e-05 0 -0.011753 0 2650 
2344 1 -0.000647395 0.00616323 -0.0132792 0.000423 0.00575909 -0.0231993 -0.0217047 2650 
445 1 -0.00974963 0.0071364 -0.0126902 0.000656 -0.00772698 -0.00205071 -0.00501702 2650 
3259 1 -0.00891961 0.00715645 -0.0128543 0.000116 0.00136236 -0.0113258 0.00321419 2650 
1795 1 -0.00885608 0.00771148 -0.0128947 0.000423 -0.00333027 -0.00705618 0.0037936 2650 
4179 1 -0.00758158 0.00762038 -0.01265 0.000423 -0.00767678 -0.0221048 -0.00852388 2650 
450 1 -0.00585077 0.00782165 -0.0128488 0.000656 0.0109678 0.0466598 0.00707816 2650 
1250 1 -0.00830526 0.00808505 -0.0134177 0.000423 -0.00730125 -0.00574558 -0.000431452 2650 
205 1 -0.000744 0.00832368 -0.01334 0.000116 0 -0.011753 0 2650 
3847 1 -0.00952798 0.00941885 -0.012763 0.000656 0.00223772 0.0142639 -0.00523739 2650 
2483 1 -0.00810554 0.00877321 -0.0129654 0.000116 0.0222317 -0.00887276 -0.000700143 2650 
2453 1 -0.00606251 0.00913725 -0.0126906 0.000423 -0.0010049 -0.00249977 -0.0101278 2650 
2781 1 -0.00587295 0.0101075 -0.0128873 0.000423 -0.00442793 0.0056962 -0.0279247 2650 
1986 1 -0.00256689 0.0105191 -0.0132472 0.000656 0.00762539 0.0149956 0.0116892 2650 
508 1 -0.0109774 0.0115107 -0.0127408 0.000116 -0.0281885 0.0711476 0.0146726 2650 
1775 1 -0.00823195 0.0111072 -0.0130624 0.000423 -7.29146e-05 -0.011186 -0.000346901 2650 
3150 1 -6.48963e-05 0.0111295 -0.0127216 0.000116 -0.0182263 -0.0087302 -0.0269448 2650 
949 1 -0.00745398 0.012477 -0.0130713 0.000116 -0.0176518 0.0277962 -0.00593252 2650 
1802 1 -0.00384589 0.0124373 -0.0127069 0.000423 0.00500259 -0.000364755 -0.0111755 2650 
3632 1 -0.0106257 0.0128223 -0.0126602 0.000423 -0.0152052 0.000760494 0.0188393 2650 
3106 1 -0.00980225 0.0132605 -0.0131211 0.000423 -0.042507 0.0242048 -0.0146805 2650 
959 1 -0.00978528 0.01579 -0.0126933 0.000116 -0.0124197 0.0522228 0.0447896 2650 
1143 1 -0.000417174 0.0150968 -0.0128749 0.000423 0.0070315 0.0110531 -0.00616027 2650 
1195 1 -0.00965519 0.025793 -0.0133242 0.000116 0.0557766 0.0782116 -0.0138054 2650 
3577 1 -0.0678188 -0.014807 -0.0120662 0.000116 -0.86057 -0.455472 4.86421 2650 
4097 1 -0.0084434 -0.00259243 -0.0122908 0.000423 0.0222564 -0.0142204 -0.0225559 2650 
1763 1 -0.001143 -0.00254732 -0.012442 0.000656 0 -0.011753 0 2650 
2468 1 -0.00607065 -0.000941326 -0.01212 0.000423 -0.0504222 0.0211365 0.000191011 2650 
3191 1 -0.00821665 -0.00019466 -0.0126191 0.000656 -0.0197381 0.00193499 -0.0014393 2650 
1422 1 -0.003881 -0.000701316 -0.012349 4.2e-05 0 -0.011753 0 2650 
1799 1 -0.00322675 0.000102466 -0.0120543 0.000423 7.10678e-05 -0.0118308 4.63239e-05 2650 
3389 1 -0.010415 0.00156468 -0.012026 0.000116 0 -0.011753 0 2650 
3956 1 -0.00907396 0.00105732 -0.0123283 0.000656 -0.000640959 -0.0104529 -0.000368355 2650 
541 1 -0.00706849 0.00121252 -0.0122017 4.2e-05 -0.0143735 0.00954058 0.00936495 2650 
3201 1 -0.00661068 0.00254699 -0.0118625 0.000423 -0.00608722 0.0216696 0.0089772 2650 
3826 1 -0.00921008 0.00343985 -0.0125486 0.000116 -0.000556987 -0.0170562 0.000917958 2650 
411 1 -0.010888 0.00418566 -0.0120948 0.000116 -0.00787832 -0.00657823 -8.20909e-05 2650 
3787 1 -0.00655879 0.00423459 -0.0122509 0.000116 -0.0024271 -0.00223267 -0.0195234 2650 
708 1 -0.00227518 0.004039 -0.0122355 0.000423 0.0112279 -0.00894022 0.00239788 2650 
2194 1 -0.00201943 0.00471655 -0.0123474 4.2e-05 0.00491046 0.00111596 0.00228026 2650 