ITEM: TIMESTEP
10949172
ITEM: NUMBER OF ATOMS
4326
ITEM: BOX BOUNDS ff ff ff
-0.15 0.15
-0.15 0.06
-0.15 0.15
ITEM: ATOMS id type x y z radius vx vy vz density 
1647 1 -0.0988253 -0.0403101 -0.0390658 4.2e-05 -7.28114 0.0540913 2.48323 2650 
83 1 -0.0775973 -0.0414047 -0.0309106 0.000116 -9.43131 -0.0673903 6.02084 2650 
1841 1 -0.096078 -0.0398381 -0.0169058 0.000116 -8.90391 0.307432 6.19713 2650 
1856 1 -0.0110289 -0.0531906 -0.0679955 0.000116 -5.46751 -0.13972 0.90208 2650 
1550 1 -0.0095057 -0.0518734 -0.067683 0.000656 -8.58204 0.128244 1.22704 2650 
3946 1 -0.0152798 -0.0497018 -0.0672436 4.2e-05 -6.85995 -0.085888 1.5655 2650 
3840 1 -0.0257148 -0.045937 -0.0633245 0.000656 -7.92778 0.0638279 3.24222 2650 
2835 1 -0.0385978 -0.0564836 -0.0570545 0.000116 -5.92111 -0.74324 4.01111 2650 
4025 1 -0.0628769 -0.0473689 -0.0281297 0.000116 -2.84948 0.487934 6.40819 2650 
2064 1 -0.0637169 -0.0506308 -0.0261617 0.000116 -2.69056 0.454315 6.47146 2650 
1320 1 -0.0643035 -0.0464173 -0.0248942 4.2e-05 -2.61862 -0.624568 6.71467 2650 
3391 1 -0.0670716 -0.0489289 -0.0160191 4.2e-05 -1.4328 -0.289922 6.03463 2650 
669 1 -0.067124 -0.0616124 -0.0128649 0.000656 -1.59766 -0.00471275 8.20216 2650 
1256 1 -0.0685768 -0.0462662 -0.000407993 0.000423 -0.0558124 0.0321551 8.82192 2650 
1638 1 -0.068237 -0.0475167 0.00939213 0.000116 0.864976 0.929973 5.86253 2650 
1462 1 -0.0574134 -0.0484574 0.037507 0.000423 4.10737 0.275856 6.32255 2650 
51 1 -0.0559457 -0.0511522 0.0396624 0.000423 4.73845 -0.117994 6.67683 2650 
2317 1 -0.0519761 -0.0472577 0.044381 0.000656 5.75163 -0.0963675 6.77622 2650 
1568 1 -0.0485259 -0.0475277 0.0484579 0.000423 5.42097 -0.153677 5.42098 2650 
3181 1 -0.0478806 -0.0456861 0.0496249 4.2e-05 7.01655 0.392811 6.77339 2650 
2717 1 -0.0432053 -0.0481799 0.0536507 0.000116 3.77937 -0.750771 3.05649 2650 
4288 1 -0.0308189 -0.0473843 0.0612626 0.000423 6.74364 -0.0965444 3.38486 2650 
3079 1 -0.0238361 -0.048916 0.0640546 0.000656 7.85761 -0.0263728 2.918 2650 
691 1 -0.0237188 -0.0451892 0.064346 0.000423 7.257 -0.0754302 2.69129 2650 
3409 1 -0.0160227 -0.0519015 0.0664417 0.000656 8.02173 -0.0347588 1.90353 2650 
1060 1 -0.0015603 -0.0282236 -0.0688669 0.000116 -7.3931 0.260045 0.152485 2650 
78 1 -0.0038172 -0.0226674 -0.0687779 0.000116 -9.33726 -0.412401 0.517223 2650 
3577 1 -0.0020259 -0.0207363 -0.0688546 0.000116 -7.52121 0.191911 0.215479 2650 
3358 1 -0.00318408 -0.0199888 -0.0688101 0.000116 -6.47198 -0.329863 0.299649 2650 
3269 1 -0.00164527 -0.0080637 -0.0688644 0.000116 -3.29795 -0.190315 0.0774996 2650 
1596 1 -0.00245408 -0.000115997 -0.0688403 0.000116 -6.03492 -0.000314815 0.202674 2650 
2116 1 -0.00579851 -0.039304 -0.0683319 0.000423 -6.21546 0.190354 0.529212 2650 
1107 1 -0.00574554 -0.0375513 -0.068105 0.000656 -8.03422 -0.120025 0.680978 2650 
2670 1 -0.0078528 -0.0348919 -0.0681272 0.000423 -7.35927 -0.306558 0.842333 2650 
2708 1 -0.00908687 -0.0343198 -0.0682822 0.000116 -7.93815 -0.935289 1.05168 2650 
3656 1 -0.00212138 -0.0308788 -0.0685461 0.000423 -7.2038 -0.176921 0.24366 2650 
2427 1 -0.0049479 -0.0292637 -0.0681681 0.000656 -7.19866 -0.160612 0.504028 2650 
330 1 -0.00961034 -0.0270582 -0.068285 4.2e-05 -9.25215 -1.52602 1.30534 2650 
2818 1 -0.00550748 -0.0276127 -0.0686639 0.000116 -7.54941 -0.249739 0.597881 2650 
1325 1 -0.00518368 -0.0269911 -0.0681504 0.000656 -7.38653 -0.0139532 0.570278 2650 
3351 1 -0.0115845 -0.026181 -0.0679029 0.000116 -6.60655 -0.757448 1.12055 2650 
3540 1 -0.00844865 -0.0245225 -0.0680558 0.000423 -7.77317 0.148294 1.0173 2650 
3514 1 -0.0073505 -0.0252092 -0.0679501 0.000656 -7.7664 0.0773258 0.848765 2650 
1560 1 -0.00619967 -0.0251487 -0.0682972 0.000423 -7.76657 0.0296035 0.716061 2650 
2002 1 -0.00581564 -0.0241635 -0.0683308 0.000423 -7.60743 0.00959446 0.666515 2650 
146 1 -0.00495782 -0.0240738 -0.0683983 0.000423 -7.6143 0.0180384 0.539529 2650 
2800 1 -0.00431879 -0.0231553 -0.0684421 0.000423 -7.63868 0.0489919 0.498302 2650 
3393 1 -0.00959696 -0.0228187 -0.0682867 4.2e-05 -7.90041 -0.286165 1.10461 2650 
1669 1 -0.00809181 -0.0220304 -0.0680991 0.000423 -7.85007 -0.0705323 0.949032 2650 
486 1 -0.000303345 -0.0205567 -0.0685781 0.000423 -8.35678 0.0363803 0.0286995 2650 
3328 1 -0.00520659 -0.0204299 -0.0683808 0.000423 -8.09547 0.0539867 0.609635 2650 
1813 1 -0.00265258 -0.0179503 -0.0685264 0.000423 -7.38133 -0.375843 0.280888 2650 
4082 1 -0.00202457 -0.0163789 -0.068548 0.000423 -7.25147 -0.235626 0.196476 2650 
868 1 -0.00802137 -0.0125555 -0.0684157 0.000116 -6.66009 -0.351585 0.78885 2650 
1825 1 -0.010441 -0.0100132 -0.0680882 0.000116 -6.47388 0.927829 0.990585 2650 
854 1 -0.00984641 -0.00344478 -0.0681765 0.000116 -7.12997 0.137416 1.02693 2650 
169 1 -0.00840049 -0.00359423 -0.0683698 0.000116 -6.36952 -0.376062 0.787111 2650 
21 1 -0.010958 -0.0318061 -0.0676969 0.000423 -7.56997 -0.103383 1.22382 2650 
1104 1 -0.00993088 -0.0313462 -0.0676211 0.000656 -7.58073 -0.0127938 1.10788 2650 
4303 1 -0.0118625 -0.0250252 -0.0675439 0.000423 -6.54414 -0.383409 1.13684 2650 
1912 1 -0.0106058 -0.0246485 -0.0677531 0.000423 -7.49534 -0.571832 1.16635 2650 
3783 1 -0.0108518 -0.02379 -0.0677138 0.000423 -6.77395 -0.0659788 1.07945 2650 
1002 1 -0.00965064 -0.0241085 -0.0676611 0.000656 -7.73858 0.158872 1.07205 2650 
1227 1 -0.0116605 -0.0235644 -0.0675794 0.000423 -6.80346 -0.173179 1.18069 2650 
4095 1 -0.0119983 -0.0219203 -0.0675201 0.000423 -7.20986 0.0658913 1.27009 2650 
4260 1 -0.0142027 -0.0210111 -0.0674041 0.000116 -6.60009 0.295288 1.3976 2650 
3815 1 -0.0143197 -0.0170537 -0.0673782 0.000116 -5.51675 -0.159 1.15484 2650 
1341 1 -0.0141347 -0.0154514 -0.0671052 0.000423 -5.98576 0.184059 1.23943 2650 
1095 1 -0.015408 -0.00785415 -0.0672002 4.2e-05 -6.06178 -0.185797 1.24727 2650 
3602 1 -0.0138527 -0.0203604 -0.0666522 0.000116 -10.2876 0.171377 2.26003 2650 
2967 1 -0.016151 -0.019008 -0.0664105 0.000656 -7.02881 -0.0998938 1.69982 2650 
4062 1 -0.0149234 -0.0160797 -0.0666964 0.000656 -5.7972 -0.123956 1.23669 2650 
1058 1 -0.0158017 -0.0156526 -0.0670406 0.000116 -7.04726 -0.361317 1.65998 2650 
2382 1 -0.0173004 -0.0119571 -0.0666288 0.000116 -3.44791 -0.560617 0.880039 2650 
3118 1 -0.0189216 -0.0321418 -0.0658887 0.000423 -8.50299 0.266479 2.48782 2650 
204 1 -0.0202266 -0.0218541 -0.0658466 0.000116 -6.82072 -0.8011 2.10613 2650 
1119 1 -0.0192098 -0.0208586 -0.0658328 0.000423 -5.87968 -0.338123 1.70713 2650 
2768 1 -0.0191098 -0.0137393 -0.065846 0.000423 -6.12207 -0.0897857 1.88018 2650 
4373 1 -0.0198963 -0.00526119 -0.0660162 4.2e-05 -7.52672 1.19058 2.26965 2650 
3319 1 -0.0209955 -0.0434978 -0.0652853 0.000423 -8.4213 0.0783488 2.71254 2650 
483 1 -0.0225643 -0.0424956 -0.0647596 0.000423 -8.61279 -0.0671612 2.9987 2650 
175 1 -0.0229589 -0.041026 -0.0649455 0.000116 -8.57385 0.544618 3.03382 2650 
3633 1 -0.0225071 -0.0278189 -0.064779 0.000423 -7.36289 -0.151078 2.5627 2650 
3527 1 -0.0221069 -0.0233193 -0.0649161 0.000423 -7.27276 0.023268 2.46092 2650 
34 1 -0.020629 -0.0220769 -0.0654015 0.000423 -7.20868 0.258672 2.26767 2650 
1995 1 -0.0221218 -0.0100876 -0.064911 0.000423 -6.74438 0.401297 2.27308 2650 
8 1 -0.0222452 -0.0385577 -0.0646246 0.000656 -8.58228 -0.0575099 2.93876 2650 
121 1 -0.02338 -0.0274912 -0.0642229 0.000656 -7.27076 -0.0467125 2.6901 2650 
1365 1 -0.0242301 -0.0264787 -0.0641547 0.000423 -7.18349 0.152074 2.71109 2650 
2081 1 -0.0247036 -0.0255245 -0.0643806 4.2e-05 -7.23224 0.178516 2.77157 2650 
4366 1 -0.0250939 -0.0240959 -0.0641503 0.000116 -7.2654 0.280394 2.84627 2650 
4110 1 -0.0247003 -0.0234626 -0.063975 0.000423 -7.25715 0.194479 2.80388 2650 
3603 1 -0.0251893 -0.0214351 -0.0641131 0.000116 -7.17724 0.296282 2.81408 2650 
160 1 -0.0240768 -0.0211038 -0.0642125 0.000423 -7.24449 0.149137 2.70642 2650 
1055 1 -0.0241949 -0.00850091 -0.0644945 0.000116 -6.30558 -0.457033 2.379 2650 
3947 1 -0.0261078 -0.0295892 -0.0631633 0.000656 -7.27936 -0.0268122 3.00727 2650 
235 1 -0.0257623 -0.0233275 -0.063555 0.000423 -7.1794 0.041505 2.90679 2650 
2162 1 -0.0258902 -0.022673 -0.0638334 0.000116 -7.49186 0.249233 3.02851 2650 
1509 1 -0.0270827 -0.0203173 -0.0633372 0.000116 -8.247 0.0528649 3.52435 2650 
3933 1 -0.0256512 -0.0161395 -0.0639296 0.000116 -7.49979 0.704177 3.00794 2650 
4177 1 -0.0268786 -0.0288074 -0.0630919 0.000423 -7.25431 -0.0154326 3.08989 2650 
3311 1 -0.0271956 -0.0262679 -0.0629557 0.000423 -6.75389 0.240848 2.94091 2650 
2813 1 -0.0277359 -0.0154934 -0.0630534 0.000116 -6.95903 0.280265 3.06318 2650 
1072 1 -0.0286275 -0.000241347 -0.0626531 0.000116 -6.04261 -0.0647039 2.75878 2650 
201 1 -0.0304919 -0.000250423 -0.0617676 0.000116 -6.50423 -0.23561 3.20378 2650 
1116 1 -0.0311175 -0.0354066 -0.0611118 0.000423 -6.84239 -0.0677518 3.44892 2650 
791 1 -0.0303795 -0.0209942 -0.0614819 0.000423 -6.64044 -0.280379 3.29355 2650 
1934 1 -0.0316628 -0.0203739 -0.0611759 0.000116 -6.21547 -0.262552 3.22116 2650 
1613 1 -0.0320633 -0.0188179 -0.0609669 0.000116 -7.00753 -1.09797 3.70405 2650 
2634 1 -0.0328665 -0.0327261 -0.0606217 4.2e-05 -7.67392 -0.315769 4.15569 2650 
3650 1 -0.0324909 -0.0307303 -0.0603934 0.000423 -6.64627 0.0101009 3.57494 2650 
1474 1 -0.0330114 -0.0290929 -0.0601102 0.000423 -6.46343 0.0510743 3.57587 2650 
601 1 -0.0330598 -0.0208399 -0.0600804 0.000423 -6.52615 -0.174624 3.87907 2650 
4306 1 -0.0331237 -0.0189555 -0.0600483 0.000423 -6.11869 0.0092622 3.37485 2650 
3748 1 -0.0318361 -0.0169017 -0.0607404 0.000423 -6.4132 -0.0667077 3.35719 2650 
3385 1 -0.0341262 -0.0280651 -0.0598362 0.000116 -6.4994 0.314463 3.71125 2650 
1154 1 -0.0345582 -0.0225332 -0.0592342 0.000423 -6.13584 -0.271867 3.60095 2650 
55 1 -0.0334877 -0.0174159 -0.059846 0.000423 -6.05856 0.114242 3.37864 2650 
1833 1 -0.0345664 -0.000116 -0.0595834 0.000116 -5.14347 0.00163085 2.98539 2650 
1130 1 -0.0352393 -0.0242127 -0.0588312 0.000423 -6.0112 0.0982724 3.62213 2650 
2829 1 -0.0361897 -0.0192443 -0.0586114 0.000116 -5.84512 -0.541667 3.60781 2650 
1193 1 -0.0358947 -0.00400952 -0.058792 0.000116 -2.72477 -0.0162818 1.63514 2650 
1075 1 -0.0360526 -0.000180335 -0.0586957 0.000116 -7.75347 -0.599689 4.76384 2650 
1514 1 -0.0375073 -0.0245356 -0.057777 0.000116 -5.89256 -0.432172 3.81007 2650 
4338 1 -0.0367734 -0.0150492 -0.0582456 0.000116 -5.6174 -0.134331 3.55137 2650 
1808 1 -0.0362701 -0.0134477 -0.0582009 0.000423 -5.68837 -0.332854 3.53034 2650 
3350 1 -0.0367857 -0.00234459 -0.0582378 0.000116 -5.23874 -0.154386 3.32083 2650 
1202 1 -0.037362 -4.20149e-05 -0.0579579 4.2e-05 -4.58844 0.00184036 2.96301 2650 
4006 1 -0.0387154 -0.0360232 -0.056974 0.000116 -7.02626 -0.30621 4.7742 2650 
305 1 -0.0383887 -0.0127958 -0.0571577 0.000116 -6.07456 -1.07846 4.04326 2650 
440 1 -0.0379002 -0.00485508 -0.0575976 4.2e-05 -2.75309 -0.0727844 1.78951 2650 
1956 1 -0.0384866 -0.000449826 -0.0571265 0.000116 -4.68411 -0.0630985 3.13395 2650 
2651 1 -0.0394919 -0.0377994 -0.0560654 0.000423 -6.5421 -0.0292645 4.59717 2650 
661 1 -0.039025 -0.0368255 -0.056109 0.000656 -6.56375 -0.0184607 4.57082 2650 
1944 1 -0.0397957 -0.0208039 -0.0562254 0.000116 -6.16018 0.484542 4.36532 2650 
3887 1 -0.0400975 -0.0326145 -0.0556339 0.000423 -6.1046 0.0758612 4.41018 2650 
3547 1 -0.0397989 -0.0308811 -0.0558481 0.000423 -6.18281 -0.0594786 4.44039 2650 
886 1 -0.0394433 -0.0192081 -0.0558165 0.000656 -6.3 0.16395 4.43794 2650 
1500 1 -0.0403164 -0.0168224 -0.0558456 0.000116 -4.54165 -0.752029 3.33821 2650 
2545 1 -0.0398763 -0.00778913 -0.0557694 0.000423 -6.34755 -0.209942 4.59771 2650 
4044 1 -0.0418418 -0.018894 -0.0547196 0.000116 -4.05604 -0.649036 3.11248 2650 
3013 1 -0.0414224 -0.0148167 -0.0546472 0.000423 -5.00497 -0.144141 3.83205 2650 
2593 1 -0.042109 -0.0116464 -0.0544966 0.000116 -3.98401 -0.510819 3.08893 2650 
3622 1 -0.0414441 -0.0427105 -0.054348 0.000656 -6.70352 -0.0571681 5.11913 2650 
1051 1 -0.0422978 -0.0343768 -0.0543684 0.000116 -5.67632 -0.587764 4.41833 2650 
3536 1 -0.042629 -0.0310411 -0.0537202 0.000423 -5.89538 0.105671 4.69664 2650 
2858 1 -0.0416472 -0.0315397 -0.0541931 0.000656 -5.95463 0.020559 4.60048 2650 
2062 1 -0.042692 -0.0300754 -0.0540599 0.000116 -5.5234 0.146137 4.35055 2650 
2937 1 -0.042713 -0.0139237 -0.0540382 0.000116 -3.80207 0.193604 2.96753 2650 
419 1 -0.0427211 -0.013646 -0.0540302 0.000116 -4.10321 0.295986 3.21096 2650 
649 1 -0.0429249 -0.0103321 -0.0538696 0.000116 -4.94639 -0.65553 3.96369 2650 
3477 1 -0.0422358 -0.00568906 -0.0544139 0.000116 -2.43183 -0.123551 1.86749 2650 
3673 1 -0.04276 -0.0127889 -0.0536099 0.000423 -3.26031 0.813225 2.56876 2650 
4064 1 -0.043406 -0.0330731 -0.0527927 0.000656 -4.85374 -0.300334 4.0245 2650 
1572 1 -0.0440175 -0.029032 -0.0525872 0.000423 -5.83656 0.129492 4.86394 2650 
1377 1 -0.0447954 -0.0035141 -0.052328 0.000116 -4.79222 -0.346646 4.0909 2650 
812 1 -0.0447224 -0.0388618 -0.0519887 0.000423 -5.31367 -0.263079 4.58707 2650 
1877 1 -0.0446188 -0.0278701 -0.051773 0.000656 -5.77583 -0.0207894 4.98901 2650 
3691 1 -0.0463147 -0.0400592 -0.0509894 0.000116 -6.84893 0.539508 6.2285 2650 
1805 1 -0.0462502 -0.0392658 -0.0506349 0.000423 -5.51327 -0.260495 5.06618 2650 
1670 1 -0.0455329 -0.0284493 -0.0512813 0.000423 -5.71806 -0.0935612 5.08383 2650 
3422 1 -0.0457168 -0.0212771 -0.0511175 0.000423 -5.49947 0.0946951 4.92512 2650 
311 1 -0.0468927 -0.0449478 -0.0504586 0.000116 -6.71659 0.40529 6.23576 2650 
1206 1 -0.0473724 -0.0428599 -0.0501101 4.2e-05 -5.58506 0.402139 5.28002 2650 
1655 1 -0.0464762 -0.0404971 -0.0501121 0.000656 -6.73775 0.00413115 6.24706 2650 
2224 1 -0.0467818 -0.0247319 -0.050143 0.000423 -4.89831 0.238239 4.59218 2650 
2816 1 -0.046956 -0.0240187 -0.0503995 0.000116 -5.72745 0.416285 5.33086 2650 
2123 1 -0.0488258 -0.0340182 -0.04815 0.000423 -5.26396 0.0316083 5.32061 2650 
917 1 -0.0484369 -0.0285254 -0.048544 0.000423 -4.89586 -0.0250766 4.8874 2650 
797 1 -0.0483456 -0.0268094 -0.0486358 0.000423 -4.79297 0.157304 4.82419 2650 
4017 1 -0.0486368 -0.0184655 -0.0487794 0.000116 -5.4819 0.402712 5.47123 2650 
991 1 -0.048633 -0.0329298 -0.0480206 0.000656 -5.24904 0.0391328 5.29093 2650 
3219 1 -0.0489014 -0.0303262 -0.0480778 0.000423 -5.15336 0.354517 5.19059 2650 
3248 1 -0.0498876 -0.00484178 -0.0475 0.000116 -4.42821 0.765246 4.64116 2650 
3875 1 -0.0498377 -0.0328803 -0.0470886 0.000423 -4.94043 -0.136166 5.19477 2650 
455 1 -0.0508 -0.0269291 -0.0460532 0.000423 -4.63742 -0.103734 5.16316 2650 
3718 1 -0.0512352 -0.00369347 -0.0461534 4.2e-05 -3.92731 0.0641691 4.36236 2650 
733 1 -0.0510462 -0.00135112 -0.0462521 0.000116 -4.84729 -0.285939 5.33492 2650 
245 1 -0.051535 -0.039136 -0.0452418 0.000423 -4.94433 -0.691982 5.6027 2650 
4084 1 -0.0514502 -0.0258195 -0.0453394 0.000423 -4.60266 0.0106184 5.1961 2650 
2007 1 -0.0516748 -0.0140367 -0.045084 0.000423 -3.66906 -0.308219 4.21705 2650 
213 1 -0.0522396 -0.0103655 -0.045013 4.2e-05 -3.8448 0.0497319 4.43845 2650 
4145 1 -0.0516845 -0.00312101 -0.0455375 0.000116 -3.8149 -0.484895 4.32788 2650 
3357 1 -0.0522393 -0.0392756 -0.0448927 0.000116 -5.20033 -0.361904 6.03991 2650 
3891 1 -0.052379 -0.0312691 -0.0442495 0.000423 -3.72197 -1.22295 4.30068 2650 
333 1 -0.0521295 -0.0107445 -0.0442022 0.000656 -4.74913 -0.00879673 5.60638 2650 
1174 1 -0.0525126 -0.00664965 -0.0445808 0.000116 -3.99829 -0.314854 4.68093 2650 
2700 1 -0.053172 -0.0385159 -0.0437803 0.000116 -4.68202 0.174343 5.65233 2650 
2148 1 -0.0530176 -0.0246008 -0.0439702 0.000116 -4.68534 -0.0155527 5.59548 2650 
2248 1 -0.0529187 -0.0232996 -0.0436063 0.000423 -4.5156 0.0095625 5.43953 2650 
15 1 -0.0529765 -0.0109068 -0.0435484 0.000423 -4.67081 0.0415488 5.71582 2650 
725 1 -0.0530148 -0.000892821 -0.0439822 0.000116 -4.16538 0.000120527 5.01123 2650 
95 1 -0.0537604 -0.0274395 -0.0430446 0.000116 -4.23911 0.352501 5.42866 2650 
3096 1 -0.0532428 -0.0242945 -0.0432082 0.000423 -4.48329 -0.000976596 5.52976 2650 
42 1 -0.0533287 -0.0225609 -0.0431027 0.000423 -4.54677 -0.0834803 5.64049 2650 
3754 1 -0.0542019 -0.0264437 -0.0420109 0.000423 -4.02623 -0.167951 5.20026 2650 
1208 1 -0.0547068 -0.0133788 -0.0419804 4.2e-05 -4.46403 -0.425053 5.82937 2650 
3386 1 -0.0558699 -0.0303195 -0.040293 0.000116 -3.9712 0.239472 5.51067 2650 
1901 1 -0.0553421 -0.0249827 -0.0404991 0.000423 -4.36374 0.0251293 5.95811 2650 
1031 1 -0.0549779 -0.00922555 -0.0409925 0.000423 -3.59689 -0.0820357 4.83685 2650 
1566 1 -0.0557345 -0.0295509 -0.0399563 0.000423 -3.99734 0.299242 5.57434 2650 
2698 1 -0.0567787 -0.0100275 -0.0390026 0.000116 -4.39023 -0.191145 6.38882 2650 
3882 1 -0.0307354 -0.00623314 -0.0391347 0.000423 -4.52998 -0.279166 -5.81175 2650 
2514 1 -0.0566116 -0.00140713 -0.0392442 0.000116 -3.59044 0.0153197 5.1944 2650 
2139 1 -0.0569457 -0.0335322 -0.0382124 0.000423 -3.97211 -0.105721 5.92248 2650 
198 1 -0.0572586 -0.0330233 -0.0382948 0.000116 -3.77015 0.173988 5.6711 2650 
4345 1 -0.0573548 -0.0243165 -0.0381501 0.000116 -3.56599 -0.272881 5.3385 2650 
596 1 -0.0566445 -0.0153561 -0.038656 0.000423 -3.76617 -0.0666898 5.51607 2650 
13 1 -0.0569558 -0.0145715 -0.0381965 0.000423 -3.70009 0.0249255 5.51984 2650 
1463 1 -0.0573506 -0.0346871 -0.0376019 0.000423 -3.89369 -0.0209048 5.9065 2650 
3862 1 -0.0574412 -0.0203082 -0.0374638 0.000423 -4.23373 -0.201417 6.46616 2650 
1585 1 -0.0572526 -0.0165148 -0.0377497 0.000423 -3.8939 -0.16276 5.92294 2650 
3399 1 -0.0585701 -0.0327554 -0.0363979 4.2e-05 -4.23125 0.13183 6.79486 2650 
3491 1 -0.0584223 -0.0157993 -0.0364938 0.000116 -3.33409 0.0473353 5.32621 2650 
630 1 -0.0588145 -0.032569 -0.0358602 0.000116 -3.62337 -0.400573 5.96428 2650 
3743 1 -0.0581991 -0.0319928 -0.0362743 0.000423 -3.63771 0.102101 5.85722 2650 
1989 1 -0.0579563 -0.0198812 -0.0362261 0.000656 -3.43537 0.163179 5.56477 2650 
821 1 -0.0593019 -0.0298415 -0.0344425 0.000423 -3.68591 -0.0955703 6.36141 2650 
3626 1 -0.0590392 -0.0254043 -0.03443 0.000656 -3.37016 -0.0233304 5.79257 2650 
1886 1 -0.0594491 -0.01857 -0.034187 0.000423 -2.66664 -0.105671 4.68323 2650 
3139 1 -0.0596831 -0.0108145 -0.0343953 0.000116 -3.42547 0.162923 5.92982 2650 
3652 1 -0.0596281 -0.0274619 -0.0338747 0.000423 -3.53805 -0.0756878 6.22851 2650 
2921 1 -0.0599765 -0.00544673 -0.0338804 0.000116 -3.2326 -0.255732 5.72868 2650 
688 1 -0.0602859 -0.0274746 -0.0326891 0.000423 -3.5108 -0.207926 6.48428 2650 
2131 1 -0.0607315 -0.0386707 -0.0318537 0.000423 -3.49627 0.12084 6.69788 2650 
2959 1 -0.0611541 -0.0245739 -0.0318645 4.2e-05 -2.83824 -0.780589 5.45404 2650 
158 1 -0.0604775 -0.0174328 -0.032333 0.000423 -3.69209 -0.125069 6.86611 2650 
334 1 -0.0604057 -0.0156579 -0.0319753 0.000656 -3.54366 0.285733 6.66359 2650 
1316 1 -0.061073 -0.00938555 -0.0320217 4.2e-05 -2.59638 -0.34722 4.94111 2650 
579 1 -0.060721 -0.00375993 -0.0318728 0.000423 -2.74644 0.10007 5.21373 2650 
4307 1 -0.0611157 -0.0321762 -0.0311118 0.000423 -3.38783 0.132538 6.63358 2650 
848 1 -0.0613953 -0.00561672 -0.0312356 0.000116 -1.42355 -0.127507 2.92359 2650 
2873 1 -0.0613487 -0.0274979 -0.0306476 0.000423 -3.40025 0.00504823 6.82565 2650 
3828 1 -0.0620782 -0.0120358 -0.0300227 4.2e-05 -2.80201 -0.694477 5.82643 2650 
4331 1 -0.0623273 -0.0208001 -0.0293317 0.000116 -3.29765 0.6254 6.99165 2650 
2476 1 -0.0623129 -0.0137046 -0.0293597 0.000116 -2.52463 -0.0132074 5.39761 2650 
2246 1 -0.0616913 -0.0113615 -0.0299542 0.000423 -2.79159 -0.559826 5.62148 2650 
2282 1 -0.062446 -0.0102983 -0.0290743 0.000116 -2.67849 -0.294216 5.82338 2650 
3388 1 -0.0625557 -0.0101924 -0.0288432 0.000116 -2.6785 -0.286486 5.8487 2650 
1392 1 -0.0626502 -0.00976221 -0.0286339 0.000116 -3.00528 0.00353506 6.47707 2650 
1380 1 -0.0624441 -0.00771305 -0.0290765 0.000116 -3.00741 0.856648 6.48603 2650 
3153 1 -0.0626101 -0.00524274 -0.0287189 0.000116 -2.00052 -0.122154 4.39758 2650 
2018 1 -0.0626481 -0.0254074 -0.0278944 0.000423 -3.17388 0.0765779 7.05176 2650 
2667 1 -0.0629034 -0.0359019 -0.0273076 0.000423 -3.00499 -0.114026 6.90241 2650 
164 1 -0.0630502 -0.0343088 -0.0269579 0.000423 -2.65134 0.0807019 6.10374 2650 
4038 1 -0.0631644 -0.00254973 -0.0274801 0.000116 -3.01297 0.14183 6.90278 2650 
2160 1 -0.063234 -0.000528581 -0.0273215 0.000116 -2.3104 -0.103863 5.41843 2650 
1282 1 -0.0635539 -0.00604389 -0.0265436 0.000116 -2.09447 0.120158 4.99182 2650 
2738 1 -0.0637221 -0.00230098 -0.0263504 4.2e-05 -2.21333 -0.200094 5.37045 2650 
1849 1 -0.0640625 -0.0341459 -0.0252999 0.000116 -2.8355 0.395141 6.93435 2650 
1723 1 -0.0638835 -0.00638081 -0.0257497 0.000116 -1.96822 -0.167615 5.02096 2650 
2560 1 -0.0639459 -0.0362831 -0.0247675 0.000423 -2.59092 -0.165978 6.71608 2650 
3549 1 -0.0639125 -0.0285977 -0.0248046 0.000423 -3.07615 -0.739839 7.78679 2650 
4293 1 -0.0640895 -0.0328207 -0.0243431 0.000423 -2.50576 -0.0536599 6.48934 2650 
1045 1 -0.0641584 -0.0182868 -0.0242064 0.000423 -2.23913 -0.491237 5.89853 2650 
2271 1 -0.064633 -0.0164221 -0.0238157 0.000116 -2.37968 -0.210572 6.59255 2650 
2102 1 -0.0641456 -0.0370322 -0.0235773 0.000656 -2.57991 -0.0984577 6.97201 2650 
2681 1 -0.0645984 -0.0110221 -0.0229746 0.000423 -2.22425 -0.387635 6.22085 2650 
4312 1 -0.0646646 -0.0334303 -0.0227592 0.000423 -2.41153 0.016242 6.99884 2650 
1558 1 -0.0649652 -0.0321 -0.0219345 0.000423 -2.01796 -2.51607 6.12741 2650 
2641 1 -0.0646656 -0.029115 -0.0220883 0.000656 -2.38731 0.111486 7.09441 2650 
892 1 -0.065127 -0.0274732 -0.0207264 0.000656 -2.27027 0.223427 7.1178 2650 
2618 1 -0.0659383 -0.0262266 -0.0199275 0.000116 -1.95391 -0.293391 6.45396 2650 
3444 1 -0.0654779 -0.0246435 -0.0203851 0.000423 -2.27153 0.0628314 7.27973 2650 
4264 1 -0.0659821 -0.00708687 -0.0200378 4.2e-05 -1.8851 0.362521 6.20241 2650 
2083 1 -0.0664263 -0.00188874 -0.0185131 4.2e-05 -1.48183 -0.0583557 5.30813 2650 
2532 1 -0.0659154 -0.0409297 -0.0180646 0.000656 -1.95108 -0.177571 7.10592 2650 
1690 1 -0.0662185 -0.0382965 -0.0178336 0.000423 -1.8903 -0.0694684 7.03242 2650 
1890 1 -0.0664219 -0.0193147 -0.0170615 0.000423 -1.70904 -0.173252 6.69003 2650 
606 1 -0.000183 0.00121536 -0.016592 0.000116 0 -0.011753 0 2650 
4227 1 -0.000357629 0.00350565 -0.0166031 0.000116 0.00593372 -0.017543 0.0130313 2650 
302 1 -0.00174051 0.0102339 -0.0166241 0.000116 -0.0434127 0.0256721 -0.0191129 2650 
2013 1 -0.00300982 0.00311417 -0.0158573 0.000423 -0.00154235 0.00221798 0.00156406 2650 
2301 1 -0.00434654 0.00334978 -0.0160259 4.2e-05 -0.00116259 -0.0070103 0.00459775 2650 
2283 1 -0.0035304 0.00455668 -0.0163744 0.000116 -0.00010552 0.00956354 0.000789399 2650 
889 1 -0.00126315 0.00461205 -0.0159033 0.000656 0.0221019 0.0158351 0.0220207 2650 
2520 1 -0.000186739 0.00490035 -0.0165627 4.2e-05 0.00318265 0.000380138 0.00682554 2650 
3365 1 -0.00166392 0.00608534 -0.0164981 0.000116 0.015804 0.0241832 0.0212134 2650 
978 1 -0.0020708 0.00623925 -0.0164338 0.000116 0.0180122 -0.00353228 -0.00159853 2650 
3934 1 -0.001977 0.00597736 -0.016218 0.000116 0 -0.011753 0 2650 
2726 1 -0.00054951 0.00912428 -0.0161849 0.000116 -0.00741369 0.00988612 -0.041436 2650 
3150 1 -0.00220703 0.0101035 -0.0158884 0.000116 -0.0182263 -0.0087302 -0.0269448 2650 
938 1 -0.00152933 0.00993181 -0.0160337 0.000116 -0.00119823 0.000558801 -0.00633771 2650 
1483 1 -0.000491274 0.0105066 -0.016461 0.000423 -0.000431738 0.0094693 0.00416488 2650 
3007 1 -0.00293861 0.0115113 -0.0160181 0.000423 -0.00754521 0.0118776 -0.00214285 2650 
371 1 -0.000515779 0.0119519 -0.0162587 0.000423 -0.00963196 0.00951459 -0.00479058 2650 
188 1 -0.00315932 0.0135365 -0.0161295 0.000116 -0.0148612 0.0228045 0.00418427 2650 
2182 1 -0.00151107 0.0139829 -0.0162043 0.000116 0.00266263 0.0360122 0.0211071 2650 
3051 1 -0.00311277 0.0148759 -0.0160596 0.000116 0.163555 -0.227841 -0.0207843 2650 
2713 1 -0.000703072 0.0158909 -0.0159032 0.000116 0.00037122 0.035974 0.00535071 2650 
1717 1 -0.00400984 0.030831 -0.0160475 0.000116 -0.014717 0.0706098 -0.0348682 2650 
2264 1 -0.000288653 0.0513813 -0.0165293 0.000116 -0.0637592 0.11185 0.0253368 2650 
3759 1 -0.0668682 -0.0332408 -0.0152196 0.000423 -1.57291 0.0882149 7.16822 2650 
30 1 -0.00226004 -0.00233626 -0.0154312 0.000423 -0.0139928 -0.0214008 0.00726417 2650 
3599 1 -0.000251055 -0.00184172 -0.0153152 0.000116 0.0260231 -0.00977207 -0.00117121 2650 
3576 1 -0.000642526 -0.00138671 -0.0154562 0.000116 0.0561059 0.00120064 -0.0311085 2650 
2399 1 -0.002418 0.00142936 -0.015541 0.000116 0 -0.011753 0 2650 
3637 1 -0.00542939 0.00425211 -0.0153072 0.000423 -0.00704251 0.0124689 0.006236 2650 
1611 1 -0.0015287 0.00420179 -0.0152374 0.000116 0.0444256 -0.019621 0.0278665 2650 
1679 1 -0.00429514 0.00502822 -0.015753 0.000423 -0.00453172 0.0157125 0.00260684 2650 
3830 1 -0.006879 0.00752936 -0.015411 4.2e-05 0 -0.011753 0 2650 
2438 1 -0.0062332 0.00724643 -0.015153 0.000423 -0.00468347 -0.000292455 -0.00123863 2650 
2851 1 -0.00599555 0.0121665 -0.0156849 4.2e-05 -0.241757 -0.132402 0.104339 2650 
70 1 -0.00257063 0.0132599 -0.0155512 0.000116 0.0560864 0.0328811 0.00597028 2650 
2793 1 -0.000920049 0.0132324 -0.0151958 0.000423 0.00400332 0.0260717 0.000754087 2650 
3838 1 -0.00518278 0.0141904 -0.0152279 0.000656 0.0059045 0.0308137 -0.0288407 2650 
93 1 -0.00670935 0.0205386 -0.0154066 0.000116 -0.0930021 0.08494 0.0463235 2650 
3165 1 -0.00607668 0.0207862 -0.0152248 0.000116 -0.042342 0.12169 0.0695027 2650 
2466 1 -0.00290193 0.022729 -0.0153491 0.000423 0.0618857 0.0331724 -0.00268308 2650 
2056 1 -0.00738768 0.0354742 -0.0150717 0.000116 -0.764234 0.129459 0.318436 2650 
2210 1 -0.0667801 -0.0349346 -0.0145446 0.000656 -1.65488 -0.0464649 7.52962 2650 
2875 1 -0.0669562 -0.0140557 -0.0148264 0.000423 -1.18766 -0.149078 5.30254 2650 
1053 1 -0.007469 -0.00241264 -0.014946 0.000116 0 -0.011753 0 2650 
3011 1 -0.000450763 -0.00252287 -0.0148227 0.000423 0.0180353 -0.0317081 -0.0392676 2650 
509 1 -0.00783793 -0.000817058 -0.0142121 0.000116 -0.00480979 -0.0076817 0.0108723 2650 
2666 1 -0.00774481 0.00237511 -0.0143672 0.000423 0.0108489 0.0809916 0.0205028 2650 
857 1 -0.00746761 0.00338256 -0.0147894 0.000116 -0.0623021 0.0193526 0.00200378 2650 
3787 1 -0.00684405 0.00397219 -0.0145455 0.000116 -0.0024271 -0.00223267 -0.0195234 2650 
1192 1 -0.00723284 0.00642587 -0.0148125 0.000116 0.00510585 0.0133553 0.012363 2650 
1827 1 -0.00297454 0.00761605 -0.0144544 0.000116 0.0445821 -0.0304485 -0.00868089 2650 
3364 1 -0.00678214 0.00851874 -0.0147092 0.000116 -0.00179506 0.0163753 -0.0232219 2650 
581 1 -0.00559972 0.00810292 -0.014456 0.000423 0.000441693 0.00100922 0.00165067 2650 
233 1 -0.00343883 0.00886344 -0.0146245 0.000423 0.00841442 -0.00267664 0.00454736 2650 
86 1 -0.00501484 0.0109019 -0.0149348 0.000116 -0.0196067 0.0126222 0.000798653 2650 
2969 1 -0.00264552 0.0109587 -0.0148617 0.000656 -0.00667616 0.014076 0.00443217 2650 
2781 1 -0.00575088 0.0112945 -0.0148634 0.000423 0.00977627 0.0105103 0.0120467 2650 
1228 1 -0.00256778 0.0137488 -0.0147178 0.000423 -0.0165339 0.0339414 0.00465399 2650 
2191 1 -0.00230477 0.0134585 -0.0143976 4.2e-05 -0.00764734 0.00298638 -0.00836536 2650 
3644 1 -0.00133331 0.0143329 -0.0147203 0.000423 -0.00424564 0.0328325 0.0133159 2650 
1776 1 -0.00597766 0.0252319 -0.0147459 0.000423 -0.019036 0.131664 0.086751 2650 
2585 1 -0.00183808 0.0275395 -0.0149832 0.000116 -0.0221426 0.0759057 0.0070692 2650 
4234 1 -0.00480664 0.0339808 -0.0143251 0.000116 0.00512064 0.0508026 0.0366661 2650 
1195 1 -0.0030998 0.0349851 -0.0149468 0.000116 0.0557766 0.0782116 -0.0138054 2650 
456 1 -0.0073759 0.0432082 -0.0148177 0.000423 -0.358705 -0.0134195 0.18275 2650 
385 1 -0.0671063 -0.0163111 -0.0141322 0.000423 -1.14059 -0.183037 5.32173 2650 
1675 1 -0.0672381 -0.00933397 -0.013493 0.000423 -1.57687 0.588684 7.89307 2650 
1379 1 -0.0675507 -0.0063976 -0.0134904 0.000116 -1.49106 1.79682 7.42556 2650 
4244 1 -0.00331121 -0.00317441 -0.0141709 0.000116 -0.0436806 -0.00994679 0.0125723 2650 
736 1 -0.00861231 -0.00175084 -0.0141793 0.000116 -0.0307431 -0.0170391 0.0144389 2650 
1763 1 -0.00395765 -0.000829622 -0.0139148 0.000656 0.0110508 0.03864 0.047043 2650 
1991 1 -0.00843102 0.000176034 -0.0138033 0.000656 -0.0192457 -0.00223252 0.00858771 2650 
2609 1 -0.00845412 0.0011729 -0.0134939 0.000116 -0.00705034 0.0126459 0.00789545 2650 
2473 1 -0.00899084 0.00209503 -0.0135982 0.000423 -0.0442117 0.037927 0.0421781 2650 
2913 1 -0.00953153 0.00311289 -0.0134418 0.000116 -0.0031719 -0.0208365 0.00893463 2650 
763 1 -0.00724691 0.00338164 -0.0137634 4.2e-05 -0.0107376 -0.0192397 -0.014763 2650 
220 1 -0.00330615 0.00368661 -0.0137301 4.2e-05 0.00197382 0.00663681 0.00671825 2650 
1288 1 -0.002467 0.00515836 -0.014044 0.000116 0 -0.011753 0 2650 
3515 1 -0.00852877 0.00639821 -0.0136196 0.000656 -0.00454215 -0.00749919 0.00616721 2650 
1618 1 -0.00948799 0.00761596 -0.0138388 0.000116 0.0059414 0.00192455 -0.00369393 2650 
1769 1 -0.00857438 0.00789484 -0.0136997 0.000656 -0.00763615 -0.00751468 0.00847974 2650 
4368 1 -0.000138407 0.00863915 -0.0141052 0.000116 0.0213285 8.20602e-05 -0.0260591 2650 
4190 1 -0.00926982 0.0094001 -0.0136304 0.000423 -0.00662655 0.00573878 0.00360714 2650 
842 1 -0.00779485 0.00886734 -0.0138741 0.000116 -0.0132472 -0.000581938 -0.0143857 2650 
1409 1 -0.000494085 0.00892669 -0.0138965 0.000116 -0.00338114 -0.0124825 -0.00177889 2650 
793 1 -3.39846e-05 0.00936564 -0.0138106 0.000423 -0.00384688 0.00642406 -0.0108379 2650 
289 1 -0.00367226 0.0102308 -0.0138116 0.000116 -0.0130397 0.0193908 0.0119694 2650 
3500 1 -0.0054234 0.0108421 -0.0134866 4.2e-05 -0.0484689 0.00233787 0.0298831 2650 
2453 1 -0.00596956 0.0122287 -0.0140931 0.000423 0.00287214 0.0261989 -0.0126472 2650 
1802 1 -0.00325794 0.0123945 -0.0140203 0.000423 0.00500259 -0.000364755 -0.0111755 2650 
2345 1 -0.00161512 0.013685 -0.0136921 0.000423 -0.0175833 0.0131789 -0.0282092 2650 
128 1 -0.000778767 0.0139014 -0.0138926 0.000423 -0.0122377 0.0336028 -0.0162643 2650 
3145 1 -0.00903015 0.0148238 -0.0141655 0.000116 0.00413084 0.0258652 0.0123186 2650 