ITEM: TIMESTEP
5798526
ITEM: NUMBER OF ATOMS
4367
ITEM: BOX BOUNDS ff ff ff
-0.15 0.15
-0.15 0.06
-0.15 0.15
ITEM: ATOMS id type x y z radius vx vy vz density 
2256 1 -0.00445231 -0.0492815 -0.0687365 0.000116 -4.97605 0.0810276 0.313825 2650 
1856 1 -0.0134746 -0.0511603 -0.0675531 0.000116 -4.70616 -0.263924 0.92956 2650 
482 1 -0.0152705 -0.0556106 -0.0668561 0.000423 -5.38048 -0.166814 1.23516 2650 
3945 1 -0.0265018 -0.0480857 -0.0636623 4.2e-05 -8.65401 0.446065 3.6044 2650 
2833 1 -0.0361249 -0.0493996 -0.0586207 0.000116 -3.9637 0.482342 2.26442 2650 
2314 1 -0.0588631 -0.0524053 -0.0347328 0.000656 -2.82264 0.515669 4.68994 2650 
2274 1 -4.39592e-05 -0.0517138 -0.0688849 0.000116 -3.86571 0.265877 0.0288193 2650 
2317 1 -0.0665046 -0.0469693 -0.0157635 0.000656 -1.60947 0.0495696 6.77089 2650 
1320 1 -0.0689445 -0.0474064 0.00134837 4.2e-05 0.155988 0.566382 7.92589 2650 
3426 1 -0.0488101 -0.0596799 0.0481715 0.000423 3.14365 -0.38938 3.21066 2650 
3073 1 -0.00544743 -0.0369147 -0.0687413 4.2e-05 -3.60201 0.703479 0.2385 2650 
4353 1 -0.00419945 -0.0182402 -0.0687553 0.000116 -7.5204 -0.409551 0.447081 2650 
4376 1 -0.00391321 -0.0176156 -0.0688459 4.2e-05 -3.45267 -0.194171 0.196404 2650 
4264 1 -0.00121644 -0.0088813 -0.0689468 4.2e-05 -4.2122 -0.0124271 0.058175 2650 
2954 1 -0.00200013 -0.000116076 -0.0688549 0.000116 -4.89119 3.81543e-05 0.131244 2650 
1961 1 -0.00176754 -0.00011601 -0.0688612 0.000116 -4.89155 -0.000921235 0.151792 2650 
4360 1 -0.00146442 -0.000116071 -0.0688683 0.000116 -4.88887 0.000537992 0.0897181 2650 
2765 1 -0.00057988 -0.0382689 -0.068575 0.000423 -4.96401 -0.323982 0.0640202 2650 
816 1 -0.000587921 -0.0347582 -0.0685752 0.000423 -5.98083 0.0205153 0.0363957 2650 
1781 1 -0.00442145 -0.0346918 -0.0684309 0.000423 -5.36213 0.442245 0.32452 2650 
4069 1 -0.00591903 -0.0242371 -0.0683202 0.000423 -5.12302 -0.0576793 0.428018 2650 
2 1 -0.00652617 -0.0232434 -0.0680317 0.000656 -4.96164 0.189063 0.4026 2650 
2048 1 -0.0105327 -0.0215725 -0.068073 0.000116 -5.5012 -0.737705 0.881626 2650 
3881 1 -0.00111392 -0.0217025 -0.0685693 0.000423 -6.57166 -0.516287 0.105136 2650 
3649 1 -0.0063375 -0.0191358 -0.0682835 0.000423 -5.12617 0.148607 0.483115 2650 
3671 1 -0.00810329 -0.0174286 -0.0680933 0.000423 -4.95402 -0.00402396 0.543048 2650 
3989 1 -0.00402932 -0.0166873 -0.068458 0.000423 -4.71431 -0.175531 0.251206 2650 
3351 1 -0.0110507 -0.00743736 -0.0679697 0.000116 -3.1685 -0.165212 0.67204 2650 
1752 1 -0.00626145 -0.00453371 -0.068429 4.2e-05 -3.26592 -0.0973132 -0.152402 2650 
1203 1 -0.0132533 -0.0291631 -0.067672 4.2e-05 -4.94746 -0.231759 0.967019 2650 
1447 1 -0.0106735 -0.0275403 -0.0677127 0.000423 -5.37601 -0.115537 0.899482 2650 
2691 1 -0.0117168 -0.0252829 -0.0675641 0.000423 -5.23111 -0.297083 0.986402 2650 
575 1 -0.0136959 -0.0241258 -0.0671965 0.000423 -5.39573 -0.366436 1.11401 2650 
681 1 -0.0140896 -0.0216145 -0.0671152 0.000423 -5.42004 -0.0987106 1.15792 2650 
1924 1 -0.0110857 -0.0154651 -0.0676671 0.000423 -4.70615 -0.148004 0.78212 2650 
4068 1 -0.0119218 -0.0148302 -0.0675323 0.000423 -4.68194 -0.0349385 0.933951 2650 
3725 1 -0.0124668 -0.0114924 -0.0678204 4.2e-05 -3.28794 -0.215704 0.589022 2650 
4213 1 -0.014954 -0.0214672 -0.066928 0.000423 -5.42091 -0.0152971 1.25938 2650 
4132 1 -0.0157955 -0.0169945 -0.0670482 0.000116 -3.71652 -0.272244 0.860659 2650 
2593 1 -0.0171912 -0.014558 -0.0667046 0.000116 -3.56545 -0.143416 0.894292 2650 
3688 1 -0.0203281 -0.0253133 -0.0658165 0.000116 -5.1177 -0.299459 1.57625 2650 
1952 1 -0.0207801 -0.0125323 -0.0656753 0.000116 -4.58712 0.323699 1.4548 2650 
1180 1 -0.0199546 -0.00888629 -0.0659308 0.000116 -5.84681 -0.0512302 1.76974 2650 
3891 1 -0.0193593 -0.00761751 -0.0657888 0.000423 -3.65662 0.0210572 1.11124 2650 
3718 1 -0.0230956 -0.0313225 -0.0649761 4.2e-05 -4.52425 -0.340674 1.59686 2650 
3055 1 -0.0231859 -0.0268771 -0.0648642 0.000116 -4.57599 -0.133644 1.61858 2650 
3353 1 -0.0230967 -0.0223292 -0.0648962 0.000116 -7.41827 -0.293625 2.63816 2650 
2404 1 -0.0226422 -0.0219214 -0.0650561 0.000116 -3.75722 0.0825313 1.3327 2650 
1500 1 -0.0112128 -0.0129258 -0.0648372 0.000116 -2.98021 -0.573145 1.13114 2650 
3570 1 -0.0250711 -0.0223891 -0.0641596 0.000116 -4.15994 0.0193863 1.61898 2650 
4019 1 -0.0253418 -0.0158119 -0.0640518 0.000116 -3.76219 0.210982 1.50813 2650 
2186 1 -0.0240099 -0.0110071 -0.0645643 0.000116 -4.40076 0.190996 1.63423 2650 
341 1 -0.0261085 -0.0278686 -0.0631609 0.000656 -4.19242 -0.112939 1.72647 2650 
1335 1 -0.026498 -0.0179366 -0.063251 0.000423 -4.52514 -0.0678339 1.87998 2650 
200 1 -0.0279931 -0.0312271 -0.0629402 0.000116 -5.99644 -0.62383 2.60538 2650 
1520 1 -0.0280883 -0.0267082 -0.0628933 0.000116 -6.44162 0.24384 2.84993 2650 
323 1 -0.0294301 -0.0242903 -0.0623619 4.2e-05 -8.19458 -0.576921 3.84854 2650 
167 1 -0.0305162 -0.0217985 -0.0617558 0.000116 -5.00081 0.24933 2.45027 2650 
3815 1 -0.0322688 -0.0106942 -0.0608398 0.000116 -2.91563 -0.218717 1.43585 2650 
1798 1 -0.0306534 -0.0088106 -0.0613378 0.000423 -4.49387 0.147486 2.23251 2650 
2487 1 -0.0342927 -0.0437792 -0.0597412 0.000116 -4.62984 -0.421521 2.644 2650 
2732 1 -0.034636 -0.0328343 -0.0595428 0.000116 -4.91723 -0.451897 2.82393 2650 
3018 1 -0.0345384 -0.0281841 -0.0592449 0.000423 -4.32417 0.0981031 2.47908 2650 
4204 1 -0.0341932 -0.00830323 -0.0594385 0.000423 -3.20951 -0.192009 2.11738 2650 
2296 1 -0.0340963 -0.00753167 -0.0598394 0.000116 -4.19561 0.631194 2.52697 2650 
1956 1 -0.0355963 -0.0124953 -0.0589733 0.000116 -4.10202 0.258042 2.46896 2650 
1832 1 -0.0361589 -0.000115997 -0.0586305 0.000116 -3.901 0.000111627 2.40645 2650 
1784 1 -0.0367645 -0.0127972 -0.0578905 0.000423 -4.12991 0.349465 2.60546 2650 
2966 1 -0.0379316 -0.0301524 -0.0568545 0.000656 -4.80258 0.00536886 3.16652 2650 
1157 1 -0.0384764 -0.0134428 -0.057136 0.000116 -2.82619 -0.237785 1.92171 2650 
1042 1 -0.0411863 -0.0381675 -0.0548328 0.000423 -4.25189 -0.127146 3.18581 2650 
2612 1 -0.0420098 -0.0225493 -0.0545908 0.000116 -4.7996 0.300635 3.68721 2650 
615 1 -0.0417396 -0.000116445 -0.0547976 0.000116 -4.0491 0.0066445 3.09411 2650 
1210 1 -0.042455 -0.0109579 -0.0543402 4.2e-05 -2.50609 -0.257087 2.00663 2650 
3088 1 -0.0434846 -0.0344157 -0.0530297 0.000423 -4.39439 0.188118 3.61424 2650 
2911 1 -0.0437717 -0.022724 -0.0527916 0.000423 -4.93775 -0.308623 4.09106 2650 
3381 1 -0.0444436 -0.015881 -0.0526289 0.000116 -3.08872 -0.166055 2.59686 2650 
902 1 -0.0462375 -0.0341124 -0.0506472 0.000423 -4.18374 -0.428313 3.82202 2650 
83 1 -0.0468675 -0.00465558 -0.0504773 0.000116 -4.62475 -0.110068 4.26581 2650 
2074 1 -0.0467611 -0.00112837 -0.0505804 0.000116 -2.92357 -0.0794424 2.72892 2650 
3840 1 -0.0464351 -0.0398378 -0.0501493 0.000656 -4.48303 -0.172669 4.16384 2650 
2051 1 -0.0472974 -0.0148544 -0.0500775 0.000116 -3.48044 0.684663 3.33158 2650 
3339 1 -0.0473091 -0.0111415 -0.0496361 0.000423 -3.29548 -0.252497 3.1149 2650 
2745 1 -0.0487165 -0.0162458 -0.0488034 4.2e-05 -3.4423 0.340556 3.50322 2650 
114 1 -0.0486992 -0.025876 -0.0479529 0.000656 -4.20234 -0.367536 4.27859 2650 
850 1 -0.0496662 -0.0237059 -0.0477313 0.000116 -3.11052 0.259378 3.23875 2650 
3196 1 -0.0493021 -0.0117634 -0.0476491 0.000423 -2.21998 -0.431933 2.27048 2650 
528 1 -0.0499318 -0.00572491 -0.0474504 0.000116 -3.67489 -0.133621 3.6172 2650 
4305 1 -0.0491998 -0.00472359 -0.0477667 0.000423 -3.4545 -0.0642232 3.54564 2650 
579 1 -0.0492453 -0.00250851 -0.0477249 0.000423 -3.35381 -0.0186935 3.56197 2650 
689 1 -0.0499829 -0.0326689 -0.0469546 0.000423 -4.3789 0.0647989 4.64231 2650 
2023 1 -0.05085 -0.0301293 -0.046014 0.000423 -3.81249 0.0187131 4.17894 2650 
379 1 -0.0507738 -0.0248424 -0.046097 0.000423 -3.72799 0.184026 4.13574 2650 
1655 1 -0.0508314 -0.0330799 -0.0456867 0.000656 -4.30788 -0.0356556 4.79381 2650 
2350 1 -0.0516285 -0.0259733 -0.0451367 0.000423 -3.61973 0.323909 4.14636 2650 
4338 1 -0.0527226 -0.00840063 -0.0443216 0.000116 -2.48068 -0.0809829 3.21983 2650 
15 1 -0.00585007 -0.00518257 -0.0443328 0.000423 -0.876866 -0.186334 -6.75571 2650 
491 1 -0.052465 -0.0115427 -0.0441542 0.000423 -2.41176 -0.172365 3.20407 2650 
2436 1 -0.053521 -0.0293276 -0.0428609 0.000423 -3.04506 0.242033 3.64374 2650 
1716 1 -0.0541424 -0.0137704 -0.0425858 0.000116 -3.27872 0.462952 4.16341 2650 
4037 1 -0.054255 -0.0351039 -0.0424059 0.000116 -3.51829 -1.00475 4.33842 2650 
2679 1 -0.0541741 -0.0321019 -0.0420158 0.000423 -3.28566 0.0996398 4.21518 2650 
827 1 -0.0541981 -0.0280943 -0.0424667 0.000116 -3.32622 0.451486 4.06043 2650 
3785 1 -0.0546032 -0.0114428 -0.0419934 0.000116 -3.96625 0.736384 5.15187 2650 
3580 1 -0.0542688 -0.00936069 -0.0424251 0.000116 -3.06579 0.439527 3.90312 2650 
555 1 -0.0541464 -0.0335205 -0.0416603 0.000656 -3.83405 -0.102563 4.94352 2650 
3601 1 -0.0555327 -0.0445747 -0.0407498 0.000116 -3.65534 0.392588 4.89361 2650 
3256 1 -0.00742671 -0.00648403 -0.040965 0.000116 -1.13737 -0.281866 -6.2293 2650 
1503 1 -0.0562706 -0.00877888 -0.0397326 0.000116 -2.5274 0.088075 3.60091 2650 
3005 1 -0.0564901 -0.00947676 -0.038883 0.000423 -2.58772 -0.227444 3.72153 2650 
2052 1 -0.0574717 -0.0153711 -0.0379744 0.000116 -1.82647 -0.229766 2.77276 2650 
3174 1 -0.0581999 -0.0257788 -0.0369818 4.2e-05 -5.26813 -0.616522 8.27371 2650 
2680 1 -0.0574051 -0.0145967 -0.0375184 0.000423 -2.37958 -0.189312 3.64506 2650 
3683 1 -0.0579134 -0.0118146 -0.0372981 0.000116 -2.71826 0.107419 4.23026 2650 
3095 1 -0.0576279 -0.010963 -0.0371767 0.000423 -2.75302 0.212584 4.27952 2650 
3502 1 -0.0583167 -0.0062417 -0.0368024 4.2e-05 -1.72555 -0.134754 2.76096 2650 
1740 1 -0.0588403 -0.0241097 -0.0358141 0.000116 -2.56324 -0.0107091 4.19206 2650 
1433 1 -0.0580868 -0.0145167 -0.0360169 0.000656 -2.37643 -0.239185 3.76657 2650 
3154 1 -0.0596742 -0.0170587 -0.0344085 0.000116 -2.75803 -0.0937041 4.77466 2650 
3470 1 -0.0597898 -0.0170523 -0.0342075 0.000116 -2.71698 -0.246805 4.80562 2650 
2875 1 -0.0595253 -0.0138248 -0.0340545 0.000423 -1.6844 -0.402351 3.00075 2650 
2160 1 -0.0596137 -0.00130052 -0.034514 0.000116 -2.19521 -0.142948 3.76652 2650 
3229 1 -0.0598366 -0.0277621 -0.0335049 0.000423 -2.54211 -0.0333856 4.58723 2650 
420 1 -0.0603935 -0.0144402 -0.0331313 0.000116 -1.7288 -0.214851 3.10867 2650 
1213 1 -0.0609933 -0.0154862 -0.0308371 0.000656 -2.18878 -0.124785 4.39528 2650 
2601 1 -0.0619531 -0.0257357 -0.0301136 0.000116 -2.39511 0.585522 4.91142 2650 
574 1 -0.0620097 -0.0193737 -0.0292874 0.000423 -2.40759 0.219642 5.09416 2650 
893 1 -0.0621534 -0.0332338 -0.028983 0.000423 -2.32903 0.0648471 4.9553 2650 
163 1 -0.0622643 -0.0304867 -0.0287428 0.000423 -2.36643 0.0607763 5.13379 2650 
367 1 -0.0627557 -0.0211103 -0.0276522 0.000423 -2.29753 0.242403 5.1851 2650 
2895 1 -0.062461 -0.01767 -0.0283126 0.000423 -2.17511 0.223774 4.74872 2650 
1886 1 -0.0627392 -0.0061667 -0.0276895 0.000423 -1.41598 0.0260662 3.2425 2650 
4087 1 -0.063263 -0.020166 -0.0264403 0.000423 -2.29727 -0.0243638 5.6925 2650 
2238 1 -0.0635345 -0.0319746 -0.0258134 0.000423 -1.80972 0.471761 4.45966 2650 
4331 1 -0.0637943 -0.0111827 -0.0259857 0.000116 -1.22281 -0.292191 3.01491 2650 
91 1 -0.0640977 -0.00512773 -0.0252283 0.000116 -1.32234 0.144856 3.41932 2650 
992 1 -0.0635841 -0.0242243 -0.0250644 0.000656 -2.30925 -0.195315 5.87295 2650 
1364 1 -0.000880196 -0.00530976 -0.0252347 0.000423 -0.161001 -0.304596 -2.98454 2650 
2823 1 -0.065171 -0.000116 -0.0223091 0.000116 -1.22102 -0.000716465 3.55153 2650 
3349 1 -0.065395 -0.00668762 -0.021645 0.000116 -1.09829 -0.740236 3.29328 2650 
1304 1 -0.0656119 -0.0284539 -0.0209779 0.000116 -1.73466 0.0893518 5.39123 2650 
2457 1 -0.0653035 -0.0221331 -0.0209358 0.000423 -1.69945 0.197662 5.29686 2650 
1169 1 -0.0189853 -0.00371752 -0.0212691 0.000116 -2.72952 -0.0723784 -3.05786 2650 
2132 1 -0.0654814 -0.0337099 -0.0203717 0.000423 -1.62419 0.730407 5.26435 2650 
2703 1 -0.066043 -0.0429282 -0.0195775 0.000116 -1.60389 -1.2013 5.37272 2650 
2103 1 -0.0658939 -0.0174544 -0.0189981 0.000423 -1.1759 -0.299362 4.16436 2650 
1535 1 -0.0661307 -4.20898e-05 -0.0195419 4.2e-05 -1.12708 0.000619869 3.79663 2650 
1453 1 -0.0660946 -0.025857 -0.0182878 0.000423 -1.43528 -0.301756 5.1847 2650 
82 1 -0.0663941 -0.024975 -0.0183527 0.000116 -1.34024 0.38031 4.83151 2650 
400 1 -0.06633 -0.0174871 -0.0185832 0.000116 -1.17552 -0.28166 4.16035 2650 
1356 1 -0.0661048 -0.0159152 -0.0182512 0.000423 -1.18771 -0.202154 4.35013 2650 
897 1 -0.0661771 -0.044546 -0.017987 0.000423 -1.50436 0.0558533 5.60166 2650 
1915 1 -0.0663039 -0.0234759 -0.0175135 0.000423 -1.549 0.19551 5.8504 2650 
4101 1 -0.0662401 -0.0196105 -0.017753 0.000423 -1.41501 -0.117334 5.2638 2650 
432 1 -0.0667079 -0.0139799 -0.0174722 4.2e-05 -1.13183 0.154962 4.26139 2650 
2353 1 -0.066314 -0.00479965 -0.0174743 0.000423 -1.30053 -0.199219 4.96481 2650 
416 1 -0.0668348 -0.024061 -0.0166758 0.000116 -1.38501 0.348962 5.54735 2650 
3198 1 -0.0664071 -0.0146775 -0.0171201 0.000423 -1.17778 -0.145852 4.5843 2650 
319 1 -0.0668288 -0.0142758 -0.0167019 0.000116 -0.92953 0.134542 3.6341 2650 
606 1 -0.000183 0.00317635 -0.016592 0.000116 0 -0.011753 0 2650 
3589 1 -0.00128829 0.00547355 -0.0166868 0.000116 0.154771 0.0635836 -0.00686375 2650 
188 1 -0.000673132 0.00946446 -0.0167961 0.000116 -0.0156058 0.0716121 0.00169132 2650 
2713 1 -0.000763 0.0101473 -0.016767 0.000116 0 -0.011753 0 2650 
814 1 -0.066677 -0.00231458 -0.016035 0.000423 -1.07543 -0.16396 4.46372 2650 
736 1 -0.00343955 0.00109963 -0.0164814 0.000116 -0.0324274 -0.0170309 -0.0227577 2650 
150 1 -0.00301971 0.00123009 -0.0161659 0.000423 -0.0638092 0.0440611 0.00851444 2650 
2793 1 -0.00200192 0.00109079 -0.0162347 0.000423 -0.000947019 0.106571 0.0232058 2650 
1679 1 -0.00363759 0.00261899 -0.0160169 0.000423 -0.000267589 -0.00703629 -0.00433961 2650 
2013 1 -0.00273351 0.00282437 -0.0161307 0.000423 -6.21088e-05 -0.00297451 0.00266081 2650 
3043 1 -0.00199292 0.00243694 -0.015967 0.000116 0.127084 0.0078871 0.090283 2650 
2301 1 -0.004222 0.00494935 -0.016305 4.2e-05 0 -0.011753 0 2650 
3121 1 -0.00324705 0.00506682 -0.016203 0.000423 0.0292552 0.00121421 5.81941e-05 2650 
1388 1 -0.000886519 0.00520729 -0.0159767 0.000116 -0.039288 0.0021603 0.0169103 2650 
302 1 -0.000336192 0.00646037 -0.0162795 0.000116 0.0171051 0.0203877 0.0103663 2650 
3934 1 -0.001977 0.00793835 -0.016218 0.000116 0 -0.011753 0 2650 
1617 1 -0.00358298 0.00973522 -0.0163579 0.000116 0.0304875 0.00968505 -0.0492471 2650 
3573 1 -0.00427887 0.0313715 -0.0160857 0.000116 0.196545 -0.226716 -0.153339 2650 
456 1 -0.00153392 0.0390049 -0.0163709 0.000423 -0.713021 -0.0435711 0.131566 2650 
4245 1 -0.00230581 0.0409007 -0.0163697 0.000116 -0.131082 0.152483 0.00432583 2650 
1357 1 -0.00283352 0.0500821 -0.0161907 0.000423 0.0681058 0.285169 -0.0155587 2650 
336 1 -0.0666587 -0.0337874 -0.0150972 0.000656 -1.29425 -0.148844 5.71006 2650 
623 1 -0.00680796 0.000513505 -0.0152432 0.000116 0.0135085 -0.00577665 0.0160157 2650 
1991 1 -0.00518472 0.000526793 -0.0152504 0.000656 -0.0197706 -0.00214867 0.00868857 2650 
3637 1 -0.0037712 0.00220781 -0.0151738 0.000423 -0.00927208 0.0142333 -0.0137243 2650 
3239 1 -0.00328925 0.00175959 -0.0157354 0.000116 -0.0332144 0.00168872 0.00188105 2650 
676 1 -0.00258096 0.00189678 -0.0157543 0.000423 -0.0153526 -0.000110762 0.0217663 2650 
2399 1 -0.002418 0.00339035 -0.015541 0.000116 0 -0.011753 0 2650 
2283 1 -0.00211425 0.00387239 -0.0155413 0.000116 -0.0318858 -0.01081 -0.0228231 2650 
2313 1 -0.00487577 0.00563222 -0.0151698 0.000656 0.00856952 0.0288131 0.00982472 2650 
2438 1 -0.00565889 0.0066763 -0.0153867 0.000423 0.0095107 -0.00232096 0.00866566 2650 
978 1 -0.00497871 0.00683964 -0.0156763 0.000116 0.015313 -0.00383775 -0.0151954 2650 
1219 1 -0.000674751 0.00703138 -0.0157543 0.000656 0.0133734 0.0239605 0.00857101 2650 
963 1 -0.0056389 0.00747129 -0.0150611 0.000116 -0.029376 -0.065298 -0.0412241 2650 
1620 1 -0.00320961 0.0079792 -0.0156607 0.000116 0.0529387 0.0514306 -0.00503745 2650 
2969 1 -0.00140967 0.00812427 -0.0150914 0.000656 -0.00819712 0.0280435 0.000260256 2650 
1483 1 -0.000316806 0.00847267 -0.0152985 0.000423 -0.0010087 0.0213686 -0.00667363 2650 
86 1 -0.002064 0.00919435 -0.015055 0.000116 0 -0.011753 0 2650 
3177 1 -0.001068 0.00899435 -0.015412 4.2e-05 0 -0.011753 0 2650 
1228 1 -0.0014321 0.00925935 -0.0150118 0.000423 -0.00123313 -0.0118667 -0.000623591 2650 
3830 1 -0.006879 0.00949035 -0.015411 4.2e-05 0 -0.011753 0 2650 
371 1 -0.000459466 0.00999357 -0.0152582 0.000423 0.000724313 -0.00601752 -0.0061741 2650 
938 1 -0.000869 0.0104003 -0.015416 0.000116 0 -0.011753 0 2650 
568 1 -0.00279287 0.016645 -0.0153283 0.000423 0.0646767 0.0324089 0.0265592 2650 
142 1 -0.00417965 0.0232792 -0.0153904 0.000423 -0.0600809 0.0373384 0.0570253 2650 
913 1 -0.00099764 0.0242944 -0.0151481 0.000423 -0.0131935 0.0940792 0.0439723 2650 
545 1 -0.00233037 -0.0018051 -0.0142791 4.2e-05 -0.000252069 0.0758595 -0.196498 2650 
2827 1 -0.00503993 -0.00114151 -0.0142569 0.000116 -0.0201753 -0.0226203 0.0017234 2650 
2817 1 -0.00183027 -0.00123231 -0.0144302 0.000116 0.0100645 -0.056664 0.00630574 2650 
1053 1 -0.007469 -0.000451653 -0.014946 0.000116 0 -0.011753 0 2650 
2332 1 -0.00428181 0.00015833 -0.014281 0.000423 -0.0114447 -0.00779769 0.00753018 2650 
222 1 -0.00215362 0.000126327 -0.014852 0.000656 -0.0189906 -0.0240038 0.0410277 2650 
2922 1 -0.00655517 0.00156011 -0.0147706 0.000116 -0.0108987 -0.0113206 0.0393947 2650 
220 1 -0.00363548 0.00257926 -0.014851 4.2e-05 0.00197382 0.00663681 0.00671825 2650 
1171 1 -0.00865929 0.00423588 -0.0142303 0.000116 -0.0146011 -0.0168948 -0.0399555 2650 
3365 1 -0.002315 0.00581635 -0.014552 0.000116 0 -0.011753 0 2650 
3950 1 -0.00713946 0.00647754 -0.0145796 0.000656 0.000269197 -0.0034931 0.0278554 2650 
1618 1 -0.00834759 0.00751041 -0.0144064 0.000116 -0.0222988 0.059375 0.0201275 2650 
4190 1 -0.0083153 0.00856575 -0.0142104 0.000423 -0.009489 7.8582e-05 0.00632979 2650 
581 1 -0.00560297 0.00869609 -0.0143305 0.000423 -0.000593495 -0.0101803 -0.00423903 2650 
233 1 -0.00477948 0.00982338 -0.0145126 0.000423 0.000342891 -0.00976437 -0.0328705 2650 
3669 1 -0.000264187 0.0106774 -0.014647 0.000423 0.00220454 -0.00743356 -0.00383523 2650 
3644 1 -0.000918197 0.0123821 -0.0147868 0.000423 -0.00432743 0.00711996 -0.0325914 2650 
1468 1 -0.00448824 -0.00229265 -0.0136384 0.000423 -0.0197001 -0.0470204 -0.0326717 2650 
1022 1 -0.00274517 -0.00222963 -0.0136034 0.000423 -0.0361806 0.0454744 -0.169588 2650 
509 1 -0.00735016 -0.000391246 -0.0141106 0.000116 -0.00521486 0.00944493 -0.0325939 2650 
3733 1 -0.00644878 0.00108818 -0.0137785 0.000656 -0.0232119 0.0173762 0.0152854 2650 
1032 1 -0.00780681 0.00392668 -0.0136905 0.000423 -0.0173367 -0.00904293 -0.0556269 2650 
234 1 -0.00111478 0.00382421 -0.0136597 0.000423 0.0351287 -0.0167305 0.0264562 2650 
2512 1 -0.00956786 0.00438698 -0.0136753 0.000116 0.018779 -0.0192413 0.00230208 2650 
3587 1 -0.00602195 0.00395594 -0.014089 0.000116 -0.0152422 -0.0151231 -0.00566973 2650 
4165 1 -0.00517202 0.0041481 -0.0137584 0.000656 -6.3943e-05 -0.032131 0.00827285 2650 
2918 1 -0.00783678 0.00488963 -0.0137151 0.000116 -0.0132236 0.0205789 -0.0380223 2650 
4227 1 -0.000331934 0.00701558 -0.0139279 0.000116 -0.00921828 -0.0161692 0.0154311 2650 
2322 1 -0.00828589 0.00725675 -0.0136071 0.000656 -0.0108707 -0.010103 0.00337555 2650 
3515 1 -0.00714152 0.00779946 -0.0141344 0.000656 -0.0103794 -0.0121819 0.00307219 2650 
1288 1 -0.002467 0.00711935 -0.014044 0.000116 0 -0.011753 0 2650 
508 1 -0.00943102 0.00827868 -0.0136212 0.000116 -0.0609474 0.0130298 0.0475554 2650 
2222 1 -0.000427169 0.0080338 -0.0141663 0.000423 -0.00549102 -0.00568171 -0.00117535 2650 
1827 1 -0.00649664 0.00943118 -0.0141276 0.000116 -0.0386186 0.00754243 -0.0442276 2650 
4257 1 -0.00825605 0.0100905 -0.0140815 0.000116 0.0101268 -0.0416798 0.0036163 2650 
1476 1 -0.006941 0.00991935 -0.013435 0.000423 0 -0.011753 0 2650 
1986 1 -0.00294298 0.00977948 -0.0138237 0.000656 0.00762539 0.0149956 0.0116892 2650 
1409 1 -0.00044 0.0108993 -0.013868 0.000116 0 -0.011753 0 2650 
3007 1 -0.00127371 0.0114159 -0.013875 0.000423 -0.0135196 -0.00505473 -0.0280609 2650 
3632 1 -0.00965413 0.0127949 -0.013422 0.000423 -0.0216519 0.000467483 0.0139725 2650 
478 1 -0.00741605 0.014953 -0.0141375 0.000423 -0.0255767 0.012458 -0.051203 2650 
3216 1 -0.00459917 0.0258669 -0.0137268 0.000423 -0.00544148 0.107266 0.0543995 2650 
2467 1 -0.00122346 0.0306342 -0.0135458 0.000423 0.0301791 0.103437 0.0421276 2650 
3153 1 -0.0017155 -0.00268098 -0.0131476 0.000116 0.0575311 -0.0297429 -0.0490481 2650 
2172 1 -0.00805686 -0.00164543 -0.0128912 0.000116 0.0554355 0.00150652 -0.0523356 2650 
3551 1 -0.00645085 0.000252099 -0.013058 0.000423 -0.015336 0.00523015 0.00637389 2650 
541 1 -0.00635958 0.000741971 -0.0126635 4.2e-05 -0.0143735 0.00954058 0.00936495 2650 
4126 1 -0.00473388 0.000121113 -0.0132693 0.000116 -0.0261531 0.0084042 0.00402279 2650 
2525 1 -0.004063 0.00134635 -0.013231 4.2e-05 0 -0.011753 0 2650 
2619 1 -0.005851 0.00216235 -0.012854 0.000116 0 -0.011753 0 2650 
3880 1 -0.010277 0.00307835 -0.012913 0.000423 0 -0.011753 0 2650 
2609 1 -0.00886 0.00288635 -0.013248 0.000116 0 -0.011753 0 2650 
3917 1 -0.003984 0.00364735 -0.012703 0.000116 0 -0.011753 0 2650 
2059 1 -0.003583 0.00385635 -0.012756 0.000116 0 -0.011753 0 2650 
3322 1 -0.00350265 0.00456139 -0.0128972 0.000423 0.0155165 0.0110838 0.0251988 2650 
2596 1 -0.00949478 0.00505088 -0.0128021 0.000116 -0.0442582 -0.0431064 0.0384975 2650 
450 1 -0.00640376 0.00550843 -0.013209 0.000656 0.0112424 0.0469319 0.00733295 2650 
2912 1 -0.00562875 0.00474879 -0.0132457 0.000116 0.00196064 0.0151142 0.00117299 2650 
4078 1 -0.00912555 0.00624504 -0.0127071 0.000423 -0.0196946 -0.00953845 0.00130892 2650 
104 1 -0.00298174 0.00588578 -0.0131696 4.2e-05 -0.00674979 0.0150481 0.0116551 2650 
1427 1 -0.002948 0.00618735 -0.013376 4.2e-05 0 -0.011753 0 2650 
3446 1 -0.0024782 0.00576234 -0.0126519 0.000423 0.014297 -0.016402 -0.00312272 2650 
2913 1 -0.00768899 0.00678392 -0.0132509 0.000116 -0.028239 -0.0119827 -0.0130286 2650 
4296 1 -0.00359678 0.00657609 -0.0133735 0.000423 -0.0431702 0.0421068 0.0473826 2650 
1237 1 -0.0100522 0.00782956 -0.0131245 0.000423 0.0147702 0.0203613 -0.00922036 2650 
3259 1 -0.00874462 0.00754977 -0.0130067 0.000116 -0.0089878 -0.00810535 0.00538998 2650 
1584 1 -0.00149231 0.00755731 -0.0129487 0.000423 -0.00963006 0.0395817 0.04039 2650 
1795 1 -0.008734 0.00818373 -0.0129827 0.000423 0.00165908 -0.0118589 -0.000959055 2650 
1769 1 -0.00644917 0.00863766 -0.0133286 0.000656 -0.0148717 0.000652235 -0.0101128 2650 
2483 1 -0.0090581 0.00930564 -0.0130308 0.000116 0.00258646 -0.0218162 0.0129531 2650 
1250 1 -0.00789642 0.00870908 -0.0130971 0.000423 -0.0109693 -0.0170514 -0.0143142 2650 
205 1 -0.000744 0.00890335 -0.01334 0.000116 0 -0.011753 0 2650 
289 1 -0.00152247 0.00974859 -0.0130189 0.000116 -0.0188061 -0.000940224 -0.0594549 2650 
1775 1 -0.00822836 0.0116589 -0.0130453 0.000423 -7.29146e-05 -0.011186 -0.000346901 2650 
949 1 -0.00658339 0.0111061 -0.0127787 0.000116 -0.0176518 0.0277962 -0.00593252 2650 
959 1 -0.00788834 0.0129968 -0.0132147 0.000116 -0.0723779 0.0623805 -0.0339909 2650 
330 1 -0.00801957 -0.00309306 -0.0123985 4.2e-05 -0.0696064 -0.0147686 0.0345761 2650 
4097 1 -0.00884935 -0.00222806 -0.0123955 0.000423 -0.0116536 0.00229875 0.0371095 2650 
800 1 -0.0066922 -0.00204904 -0.0118769 0.000423 -0.00429202 -0.0325333 0.0439645 2650 
2468 1 -0.0035838 -0.00198379 -0.0121294 0.000423 -0.0504222 0.0211365 0.000191011 2650 
1763 1 -0.001143 -0.00196765 -0.012442 0.000656 0 -0.011753 0 2650 
3191 1 -0.00724316 -0.000290095 -0.0125481 0.000656 -0.0197381 0.00193499 -0.0014393 2650 
1422 1 -0.003881 -0.000121653 -0.012349 4.2e-05 0 -0.011753 0 2650 
1799 1 -0.00323025 0.000685964 -0.0120566 0.000423 7.10678e-05 -0.0118308 4.63239e-05 2650 
3956 1 -0.00904235 0.00157286 -0.0123102 0.000656 -0.000640959 -0.0104529 -0.000368355 2650 
3201 1 -0.00631046 0.00147823 -0.0123053 0.000423 -0.00608722 0.0216696 0.0089772 2650 
3389 1 -0.010415 0.00214435 -0.012026 0.000116 0 -0.011753 0 2650 
3645 1 -0.00593192 0.00330388 -0.012502 0.000423 -0.0357151 -0.0039173 0.0164321 2650 
1192 1 -0.00516558 0.00366986 -0.0120203 0.000116 -0.0160738 0.0171838 -0.0228619 2650 
411 1 -0.0104994 0.00451011 -0.0120907 0.000116 -0.00787832 -0.00657823 -8.20909e-05 2650 
3826 1 -0.009208 0.00403935 -0.012552 0.000116 0 -0.011753 0 2650 
708 1 -0.00280629 0.00447531 -0.0123336 0.000423 -0.00318183 -0.00599768 -0.010405 2650 
3380 1 -0.00223871 0.00435343 -0.0120929 0.000116 -0.00133046 -0.0120531 0.0302183 2650 
2194 1 -0.00226161 0.00466151 -0.0124598 4.2e-05 0.00491046 0.00111596 0.00228026 2650 
2957 1 -0.00155264 0.00450519 -0.012262 4.2e-05 0.0205169 0.0248349 -0.000218849 2650 
3316 1 -0.008979 0.00479235 -0.012376 0.000423 0 -0.011753 0 2650 
1261 1 -0.00744983 0.00493309 -0.0124433 0.000423 -0.000148786 -0.00207045 -0.0014312 2650 
3362 1 -0.0026613 0.00508653 -0.0123223 0.000116 0.000350619 -0.00253681 -0.00404217 2650 
3030 1 -0.001189 0.00630235 -0.012596 0.000116 0 -0.011753 0 2650 
2219 1 -0.00301525 0.00661879 -0.0123048 0.000423 0.0430827 0.0512131 0.0198144 2650 
445 1 -0.00963998 0.00730199 -0.0122548 0.000656 -0.00157651 -0.00352117 -0.00927671 2650 
4318 1 -0.00860769 0.00762466 -0.0123093 0.000423 0.000634828 -0.00541564 0.00164809 2650 
1495 1 -0.004483 0.00777035 -0.012591 0.000116 0 -0.011753 0 2650 
2344 1 -0.000938517 0.0073119 -0.0121792 0.000423 0.00597873 -0.023338 -0.0226217 2650 
2453 1 -0.00626686 0.00866841 -0.0122604 0.000423 0.00783944 0.0181262 -0.00771338 2650 
3173 1 -0.004958 0.00843135 -0.012321 4.2e-05 0 -0.011753 0 2650 
3684 1 -0.00427934 0.00790343 -0.012528 0.000116 0.00413104 -0.0230128 -0.00941473 2650 
1519 1 -0.00320989 0.00820272 -0.0120531 0.000116 -0.0494896 0.0341374 0.0501115 2650 
2630 1 -0.001036 0.00863935 -0.012074 4.2e-05 0 -0.011753 0 2650 
4002 1 -0.000443 0.00846335 -0.01223 0.000116 0 -0.011753 0 2650 
3847 1 -0.00963271 0.00873384 -0.0124901 0.000656 0.00191913 0.0130802 -0.00623859 2650 
4179 1 -0.00720296 0.0087106 -0.0122296 0.000423 -0.00767678 -0.0221048 -0.00852388 2650 
1423 1 -0.00145 0.0101193 -0.012526 4.2e-05 0 -0.011753 0 2650 
3106 1 -0.00770578 0.0120667 -0.012397 0.000423 -0.042507 0.0242048 -0.0146805 2650 
1802 1 -0.00409262 0.0124553 -0.0121557 0.000423 0.00500259 -0.000364755 -0.0111755 2650 
2205 1 -0.0051324 0.0132777 -0.0120813 0.000656 -0.00206311 0.000112593 -0.00429342 2650 
1143 1 -0.00076397 0.0145517 -0.0125711 0.000423 0.0070315 0.0110531 -0.00616027 2650 
3932 1 -0.00462082 0.0206245 -0.0123853 0.000116 0.03152 0.0411719 0.0597923 2650 
675 1 -0.00532363 0.0221017 -0.0119905 0.000423 -0.0171714 0.0807922 0.0289201 2650 
3505 1 -0.006952 -0.00295965 -0.011235 4.2e-05 0 -0.011753 0 2650 
440 1 -0.00061 -0.00165765 -0.011485 4.2e-05 0 -0.011753 0 2650 
2666 1 -0.00793936 -0.00156491 -0.0113849 0.000423 0.00506312 -0.0128769 -0.0752945 2650 
2645 1 -0.00597761 -0.00114773 -0.0112798 0.000656 -0.0129362 0.00179202 0.059477 2650 
2939 1 -0.00940635 -0.000240954 -0.0111973 0.000116 -0.00341769 -0.0275913 0.0148239 2650 
3200 1 -0.00864359 0.000133979 -0.0111745 0.000423 -0.0275514 -0.0115593 0.0194145 2650 
756 1 -0.00563361 0.00041951 -0.0116628 0.000116 0.041834 0.0697036 0.0154272 2650 
3894 1 -0.005583 0.00151335 -0.011098 0.000116 0 -0.011753 0 2650 
1063 1 -0.009531 0.00206835 -0.011683 0.000116 0 -0.011753 0 2650 
388 1 -0.00714564 0.00186153 -0.0118403 0.000116 0.0212466 0.0335067 0.0250458 2650 
2062 1 -0.00680303 0.00196613 -0.0113909 0.000116 -0.0517879 -0.0811336 0.00337392 2650 
3477 1 -0.00913654 0.00259229 -0.0117114 0.000116 0.0616358 -0.0139442 -0.0219299 2650 
1125 1 -0.00630315 0.0033543 -0.0114069 0.000423 -0.0443086 0.0114405 0.0272453 2650 
2294 1 -0.004894 0.00374935 -0.011565 0.000116 0 -0.011753 0 2650 
2474 1 -0.00263026 0.003842 -0.0113918 0.000423 -0.00380852 -0.00865862 -0.00797376 2650 
2285 1 -0.0115175 0.00399681 -0.0118093 0.000116 0.0175306 0.0103543 0.003719 2650 
1822 1 -0.00870605 0.00465737 -0.0111362 0.000116 -0.0361035 -0.0195415 0.0016013 2650 
3787 1 -0.00643908 0.00434471 -0.011288 0.000116 -0.0024271 -0.00223267 -0.0195234 2650 
878 1 -0.00391693 0.00453774 -0.0112179 4.2e-05 -0.000281569 -0.00211859 -0.00050102 2650 
1215 1 -0.0117232 0.0054943 -0.0111691 0.000656 -0.000279333 -0.00226461 0.00683019 2650 
3221 1 -0.00823112 0.00516511 -0.0115684 0.000423 -0.0383607 -5.03589e-05 -0.0190963 2650 
1758 1 -0.00201 0.00506335 -0.01144 4.2e-05 0 -0.011753 0 2650 
4027 1 -0.003218 0.00619435 -0.011075 0.000116 0 -0.011753 0 2650 
2409 1 -0.002586 0.00613335 -0.011527 4.2e-05 0 -0.011753 0 2650 
763 1 -0.00545535 0.00659179 -0.0113002 4.2e-05 -0.0107376 -0.0192397 -0.014763 2650 
3456 1 -0.00361349 0.00687927 -0.0112869 0.000423 -0.000997028 -0.0111859 -0.00366568 2650 
3283 1 -0.000731241 0.00653152 -0.0115975 4.2e-05 0.0397515 0.0433617 -0.0233311 2650 
2338 1 -0.00926096 0.00711149 -0.0112148 0.000423 -0.0329479 -0.00278614 0.0142677 2650 
713 1 -0.00776226 0.00765252 -0.0112572 0.000423 -0.0119296 0.00314301 0.00578085 2650 
2547 1 -0.0118556 0.00860017 -0.0112405 0.000423 -0.0172305 -0.00928707 0.00629179 2650 
2798 1 -0.00813464 0.00849378 -0.0117253 0.000423 0.0168646 0.022512 -0.0112906 2650 
65 1 -0.0121756 0.00906354 -0.0113122 0.000116 -0.0150343 -0.00322364 0.0082715 2650 
4314 1 -0.0107337 0.00910966 -0.0114763 0.000423 0.0169785 -0.00769928 0.00870958 2650 
2092 1 -0.00310206 0.00897199 -0.0113352 0.000656 -0.0437836 0.00100206 -0.0436544 2650 
191 1 -0.0117242 0.00976018 -0.0112974 0.000116 -0.0068407 0.0371391 0.023513 2650 
301 1 -0.012038 0.0109922 -0.0110932 0.000116 0.00309386 0.00985584 0.0502734 2650 
3145 1 -0.006381 0.0105853 -0.011273 0.000116 0 -0.011753 0 2650 