ITEM: TIMESTEP
5928102
ITEM: NUMBER OF ATOMS
4367
ITEM: BOX BOUNDS ff ff ff
-0.15 0.15
-0.15 0.06
-0.15 0.15
ITEM: ATOMS id type x y z radius vx vy vz density 
2274 1 -0.0161619 -0.050413 -0.0669618 0.000116 -3.77884 0.349362 0.917719 2650 
3957 1 -0.0168854 -0.0466384 -0.0662289 0.000656 -5.73288 0.146156 1.48389 2650 
2256 1 -0.024854 -0.0487804 -0.0642399 0.000116 -4.68221 0.15959 1.76799 2650 
1856 1 -0.0324095 -0.0522692 -0.0607827 0.000116 -4.26187 -0.263095 2.24304 2650 
482 1 -0.0366513 -0.0562956 -0.0579622 0.000423 -4.69893 -0.159028 2.99526 2650 
2833 1 -0.0508586 -0.0472481 -0.0464504 0.000116 -3.06565 0.544261 3.40325 2650 
2487 1 -0.0515933 -0.0453325 -0.0456399 0.000116 -3.53603 -0.316037 4.01457 2650 
3945 1 -0.0566923 -0.0465932 -0.039258 4.2e-05 -5.33866 0.261241 7.70842 2650 
2314 1 -0.0670515 -0.0502473 -0.0132482 0.000656 -1.05994 0.509628 5.44974 2650 
2703 1 -0.0687728 -0.047614 0.00372707 0.000116 0.302497 -1.02414 5.62354 2650 
2317 1 -0.0670199 -0.0467047 0.0133963 0.000656 1.37193 0.0741777 6.9097 2650 
3426 1 -0.033797 -0.060958 0.0596684 0.000423 3.94391 -0.207622 2.26258 2650 
981 1 -0.00912593 -0.0393827 -0.0683511 4.2e-05 -3.27839 0.0545553 0.419513 2650 
2367 1 -0.00989467 -0.0234911 -0.0681697 0.000116 -5.39985 0.338594 0.804673 2650 
4325 1 -0.00431784 -0.022862 -0.0684417 0.000423 -6.04764 0.0233059 0.383518 2650 
1863 1 -0.0104617 -0.0104581 -0.0681588 4.2e-05 -3.32815 -0.202588 0.352054 2650 
2501 1 -0.00946817 -0.010857 -0.0682304 0.000116 -4.43733 -0.223058 0.621547 2650 
588 1 -0.00838519 -0.0108641 -0.0680632 0.000423 -4.29743 -0.298763 0.533632 2650 
1317 1 -0.0102588 -0.00535786 -0.0681891 4.2e-05 -3.22183 -0.103403 0.555635 2650 
2251 1 -0.0112675 -0.0392822 -0.0676457 0.000423 -5.20934 -0.218883 0.857882 2650 
1256 1 -0.0133986 -0.033411 -0.0672559 0.000423 -3.85333 -1.23759 0.751618 2650 
2189 1 -0.0137764 -0.0157832 -0.0675618 4.2e-05 -6.15574 -0.375817 1.26452 2650 
1417 1 -0.0150608 -0.0143658 -0.0672081 0.000116 -5.00341 0.0563065 1.08219 2650 
1407 1 -0.0182739 -0.0322957 -0.0664164 0.000116 -4.66341 0.0979433 1.27294 2650 
1753 1 -0.0169153 -0.0274214 -0.0668512 4.2e-05 -6.418 -0.539528 1.62476 2650 
4376 1 -0.0182342 -0.0183984 -0.0665022 4.2e-05 -3.3394 -0.179925 0.943573 2650 
4264 1 -0.0186811 -0.00896046 -0.0663747 4.2e-05 -4.06413 -0.0252668 1.14776 2650 
2055 1 -0.0169673 -0.00820843 -0.0667512 0.000116 -6.51076 0.0734081 1.69968 2650 
15 1 -0.0136181 -0.00655893 -0.0663754 0.000423 -3.52204 -0.594265 0.0143905 2650 
3073 1 -0.0203394 -0.0339296 -0.0658906 4.2e-05 -3.47017 0.718309 1.05957 2650 
2028 1 -0.0191039 -0.0328351 -0.0658637 0.000423 -4.4895 -0.082161 1.28797 2650 
670 1 -0.0181865 -0.0187555 -0.065883 0.000656 -4.75199 0.136223 1.3315 2650 
2544 1 -0.0177035 -0.0173327 -0.0662526 0.000423 -4.8126 0.252268 1.25039 2650 
1593 1 -0.018627 -0.0160634 -0.0660001 0.000423 -5.60045 0.175177 1.60495 2650 
1752 1 -0.019515 -0.00496392 -0.0661377 4.2e-05 -3.07962 -0.11231 0.933029 2650 
2527 1 -0.0216236 -0.000132239 -0.0654797 4.2e-05 -4.78616 -0.0430685 1.57595 2650 
2788 1 -0.0201562 -0.000468439 -0.0655485 0.000423 -6.19438 -0.00637031 1.88998 2650 
2765 1 -0.0211937 -0.0395133 -0.0652203 0.000423 -4.77114 -0.267051 1.56603 2650 
3256 1 -0.014547 -0.0076676 -0.0649137 0.000116 -2.56823 -0.249771 2.36755 2650 
1961 1 -0.0236335 -0.000167031 -0.064703 0.000116 -6.28119 -0.0437058 2.30474 2650 
4360 1 -0.0234155 -0.000170415 -0.064782 0.000116 -6.29333 -0.0416922 2.26404 2650 
2563 1 -0.0227682 -0.000480044 -0.0646879 0.000423 -6.13005 -0.0507931 2.14859 2650 
443 1 -0.0227848 -0.0246607 -0.0644366 0.000656 -5.52209 0.0126693 1.90098 2650 
3989 1 -0.0235093 -0.0174775 -0.0644227 0.000423 -4.49525 -0.202934 1.65535 2650 
1500 1 -0.0249229 -0.0153119 -0.0642172 0.000116 -3.10328 -0.555322 1.22467 2650 
3351 1 -0.0242 -0.00817107 -0.0644937 0.000116 -3.04567 -0.182269 1.16034 2650 
2954 1 -0.0238467 -0.00012006 -0.0646245 0.000116 -6.27 0.00632642 2.30527 2650 
816 1 -0.0252068 -0.0347593 -0.0637734 0.000423 -5.61411 -0.0251853 2.1884 2650 
1781 1 -0.0263799 -0.0329413 -0.0632883 0.000423 -5.02022 0.398522 2.0498 2650 
3725 1 -0.025959 -0.0123746 -0.0638858 4.2e-05 -3.12172 -0.207887 1.24424 2650 
4069 1 -0.0270226 -0.0248309 -0.0630294 0.000423 -4.92258 -0.477686 2.12195 2650 
3881 1 -0.0271901 -0.023951 -0.0629559 0.000423 -5.49772 -0.431488 2.34685 2650 
2 1 -0.0270596 -0.022281 -0.0627603 0.000656 -4.79635 0.30251 2.05442 2650 
3649 1 -0.0273463 -0.0186841 -0.0628895 0.000423 -4.79115 0.0793004 2.08022 2650 
3671 1 -0.0282952 -0.0173837 -0.0624682 0.000423 -4.58029 0.0256792 2.10755 2650 
4132 1 -0.0308738 -0.0181121 -0.0615778 0.000116 -3.44181 -0.257033 1.70889 2650 
1924 1 -0.0301867 -0.0161492 -0.061576 0.000423 -4.33868 -0.177404 2.11309 2650 
2593 1 -0.0316315 -0.0151601 -0.0611914 0.000116 -3.27531 -0.140225 1.72777 2650 
4068 1 -0.0309406 -0.0150153 -0.0612016 0.000423 -4.29987 -0.0422093 2.18895 2650 
1203 1 -0.0331064 -0.029908 -0.0604911 4.2e-05 -4.44154 -0.114942 2.41158 2650 
1447 1 -0.0323212 -0.027953 -0.0604826 0.000423 -4.85284 -0.0859714 2.56825 2650 
2691 1 -0.0328001 -0.0264582 -0.0602248 0.000423 -4.7059 -0.265833 2.59379 2650 
2048 1 -0.0326222 -0.0245919 -0.0606681 0.000116 -4.92161 -0.700894 2.64145 2650 
4353 1 -0.033251 -0.0185007 -0.0603267 0.000116 -6.31787 -0.243424 3.47086 2650 
3891 1 -0.0341878 -0.00762758 -0.0594485 0.000423 -3.36413 -0.0261245 1.93387 2650 
575 1 -0.0352317 -0.0256892 -0.0588355 0.000423 -4.76319 -0.376837 2.86149 2650 
681 1 -0.0357047 -0.0220288 -0.0585498 0.000423 -4.78701 -0.0958586 2.89753 2650 
2404 1 -0.0376646 -0.0215734 -0.0576745 0.000116 -3.36031 0.0821207 2.18442 2650 
4213 1 -0.036551 -0.021616 -0.058025 0.000423 -4.76544 -0.0547551 2.98514 2650 
1952 1 -0.0389169 -0.0112243 -0.0568382 0.000116 -3.99885 0.297348 2.71521 2650 
3718 1 -0.0408521 -0.0325213 -0.0555555 4.2e-05 -3.8838 -0.226194 2.83924 2650 
3055 1 -0.0411272 -0.027315 -0.0552593 0.000116 -3.9217 -0.0720712 2.89691 2650 
3688 1 -0.0403849 -0.0264076 -0.0558045 0.000116 -4.3508 -0.222975 3.1505 2650 
4019 1 -0.0402679 -0.0149087 -0.0558886 0.000116 -3.31349 0.21655 2.36694 2650 
2186 1 -0.041291 -0.0101699 -0.0551377 0.000116 -3.77909 0.20667 2.81757 2650 
1180 1 -0.0425967 -0.00904368 -0.0541345 0.000116 -4.81633 -0.0263013 3.78169 2650 
341 1 -0.0426082 -0.0282281 -0.0534405 0.000656 -3.59118 -0.0576845 2.88301 2650 
3815 1 -0.043658 -0.0116407 -0.0532813 0.000116 -2.55663 -0.228061 2.04458 2650 
3570 1 -0.0446415 -0.020278 -0.0524615 0.000116 -4.24052 0.524406 3.62901 2650 
1335 1 -0.0441004 -0.0181538 -0.0525173 0.000423 -3.79056 -0.0368083 3.19238 2650 
3353 1 -0.0478494 -0.0253914 -0.0495471 0.000116 -4.98318 -0.723229 4.82133 2650 
4204 1 -0.047508 -0.00947237 -0.0494425 0.000423 -3.07757 -0.418285 2.90475 2650 
1798 1 -0.047508 -0.00811609 -0.0494495 0.000423 -3.33966 0.226701 3.40532 2650 
1157 1 -0.049483 -0.0144395 -0.0478875 0.000116 -2.4123 -0.237972 2.46085 2650 
200 1 -0.0502241 -0.033554 -0.0471073 0.000116 -4.44079 -0.47904 4.84302 2650 
2296 1 -0.0502021 -0.00505727 -0.0471486 0.000116 -3.32272 0.551524 3.6203 2650 
3018 1 -0.0508136 -0.0277806 -0.0460502 0.000423 -3.24184 0.086847 3.87309 2650 
167 1 -0.0480135 -0.0207008 -0.0455908 0.000116 -1.55046 0.300798 8.56245 2650 
1956 1 -0.051089 -0.0113276 -0.0462033 0.000116 -3.08915 0.293711 3.69974 2650 
1832 1 -0.0509571 -0.000116145 -0.046344 0.000116 -3.04434 -0.00331874 3.47037 2650 
1520 1 -0.0517348 -0.0259622 -0.0454811 0.000116 -4.65976 0.109676 5.2998 2650 
1210 1 -0.052227 -0.0120604 -0.0450279 4.2e-05 -2.10937 -0.266759 2.44525 2650 
2732 1 -0.0527859 -0.0344814 -0.0442563 0.000116 -3.65009 -0.329553 4.36217 2650 
1784 1 -0.0522486 -0.0113929 -0.0444176 0.000423 -3.20449 0.319822 3.75438 2650 
1364 1 -0.00180439 -0.00664211 -0.0443766 0.000423 -0.295194 -0.330234 -6.46416 2650 
2966 1 -0.0553259 -0.0300761 -0.0401277 0.000656 -3.39654 0.0272889 4.71332 2650 
3381 1 -0.0559442 -0.0165525 -0.0401902 0.000116 -2.34436 -0.156104 3.31296 2650 
1169 1 -0.0355692 -0.00407514 -0.0398479 0.000116 -5.45651 -0.098017 -6.11289 2650 
615 1 -0.0565194 -0.00011598 -0.039377 0.000116 -2.90764 -0.00559634 4.21341 2650 
1042 1 -0.0566085 -0.0386148 -0.0387089 0.000423 -3.03202 -0.0872896 4.42113 2650 
323 1 -0.0577309 -0.0263964 -0.0377142 4.2e-05 -4.95577 -0.417364 7.57855 2650 
3196 1 -0.0576514 -0.0135778 -0.0371386 0.000423 -1.73733 -0.437312 2.72245 2650 
2074 1 -0.0576092 -0.00147191 -0.0377642 0.000116 -2.20393 -0.0843262 3.3628 2650 
2612 1 -0.058885 -0.0214867 -0.0357429 0.000116 -3.16164 0.205114 5.18126 2650 
3088 1 -0.0590312 -0.0335815 -0.0349051 0.000423 -2.94935 0.205408 4.9218 2650 
3339 1 -0.059162 -0.0122482 -0.0346805 0.000423 -2.2915 -0.277263 3.97206 2650 
2051 1 -0.0597895 -0.0120661 -0.0342078 0.000116 -2.41645 0.640676 4.1944 2650 
850 1 -0.0607381 -0.0226124 -0.0324921 0.000116 -2.12909 0.263516 3.97792 2650 
2745 1 -0.060938 -0.0148736 -0.0322739 4.2e-05 -2.32406 0.310742 4.33866 2650 
902 1 -0.0607618 -0.0357515 -0.031789 0.000423 -2.64561 -0.358659 5.07083 2650 
2911 1 -0.0606889 -0.0240296 -0.0319314 0.000423 -3.01086 -0.310749 5.71208 2650 
83 1 -0.0614461 -0.0060427 -0.0311214 0.000116 -2.41866 -0.574206 4.62926 2650 
4305 1 -0.0612892 -0.00501784 -0.0307591 0.000423 -2.27478 -0.069671 4.48812 2650 
579 1 -0.0611812 -0.00276477 -0.0309786 0.000423 -2.22524 -0.101502 4.41406 2650 
491 1 -0.0616315 -0.0122538 -0.0300452 0.000423 -1.74611 -0.167489 3.65076 2650 
4338 1 -0.06199 -0.00876695 -0.0300211 0.000116 -1.79934 -0.0904643 3.66708 2650 
3840 1 -0.0616994 -0.0405126 -0.0293985 0.000656 -2.66117 -0.152495 5.618 2650 
528 1 -0.0621657 -0.00634961 -0.0296613 0.000116 -2.15212 -0.161999 4.70649 2650 
114 1 -0.062774 -0.0273457 -0.0269807 0.000656 -2.3939 -0.330662 5.61518 2650 
2023 1 -0.063498 -0.0301321 -0.0258964 0.000423 -2.02329 -0.0195824 5.3572 2650 
379 1 -0.0633142 -0.0241815 -0.0263305 0.000423 -2.14574 0.130434 5.2134 2650 
2436 1 -0.0636128 -0.0283047 -0.0256167 0.000423 -1.82491 0.247536 4.44767 2650 
2350 1 -0.0637037 -0.0246987 -0.0253884 0.000423 -2.06728 0.282308 5.17646 2650 
2052 1 -0.0639464 -0.0163028 -0.0256066 0.000116 -1.25447 -0.211602 3.09747 2650 
3502 1 -0.0644376 -0.00682674 -0.0245555 4.2e-05 -1.17896 -0.144394 3.05499 2650 
689 1 -0.0641453 -0.0324559 -0.0242553 0.000423 -2.29679 0.0348054 6.02304 2650 
3580 1 -0.064457 -0.00765364 -0.0242945 0.000116 -1.76649 0.374934 4.65675 2650 
827 1 -0.0648334 -0.0261266 -0.023273 0.000116 -1.78847 0.49075 4.94642 2650 
1716 1 -0.0648765 -0.011917 -0.0231524 0.000116 -1.79736 0.419032 5.00597 2650 
1503 1 -0.0648013 -0.00849674 -0.0233614 0.000116 -1.49115 0.0488589 4.16102 2650 
1655 1 -0.0645838 -0.0333069 -0.0223655 0.000656 -2.13801 -0.0640376 6.18036 2650 
2679 1 -0.06485 -0.0316626 -0.0223018 0.000423 -1.76518 0.10641 5.09912 2650 
4037 1 -0.0653234 -0.0392814 -0.021859 0.000116 -1.777 -0.975835 5.30718 2650 
3005 1 -0.0650394 -0.0104057 -0.0217461 0.000423 -1.46571 -0.222941 4.37872 2650 
2680 1 -0.0652917 -0.0154146 -0.0209765 0.000423 -1.34549 -0.200781 4.19682 2650 
3785 1 -0.0657375 -0.0124741 -0.0205819 0.000116 -1.61724 -0.826139 5.12164 2650 
420 1 -0.0661525 -0.0152083 -0.0192063 0.000116 -1.06801 0.164876 3.7844 2650 
1433 1 -0.0655799 -0.0157948 -0.0192458 0.000656 -1.23229 -0.339899 4.20066 2650 
2875 1 -0.0659397 -0.0145799 -0.0188384 0.000423 -1.17909 -0.0657591 4.04272 2650 
555 1 -0.0658712 -0.0338494 -0.0182302 0.000656 -1.64589 -0.0559943 6.11509 2650 
3683 1 -0.0664796 -0.011506 -0.0180435 0.000116 -1.30315 0.0399706 4.87965 2650 
3601 1 -0.0665561 -0.042571 -0.0177548 0.000116 -1.58719 0.565287 5.91117 2650 
3095 1 -0.066273 -0.010153 -0.0176319 0.000423 -1.34092 0.171828 4.95066 2650 
2160 1 -0.066596 -0.00197012 -0.017606 0.000116 -1.13104 -0.174931 4.23182 2650 
1740 1 -0.0667983 -0.024244 -0.0168223 0.000116 -1.21705 -0.0561811 4.78161 2650 
1072 1 -0.034184 -0.00457925 -0.0167738 0.000116 -5.33888 -0.125561 -2.61973 2650 
606 1 -0.000183 0.00312701 -0.016592 0.000116 0 -0.011753 0 2650 
3589 1 -0.000638642 0.00574044 -0.0167156 0.000116 0.154771 0.0635836 -0.00686375 2650 
188 1 -0.000738637 0.00976505 -0.016789 0.000116 -0.0156058 0.0716121 0.00169132 2650 
2713 1 -0.000763 0.010098 -0.016767 0.000116 0 -0.011753 0 2650 
736 1 -0.00358254 0.00102628 -0.0164675 0.000116 -0.0354095 -0.0179405 0.00483888 2650 
150 1 -0.00328671 0.00141533 -0.0161294 0.000423 -0.0635667 0.0441481 0.00872881 2650 
2793 1 -0.0020059 0.00153812 -0.0161373 0.000423 -0.000947019 0.106571 0.0232058 2650 
1679 1 -0.00363871 0.00258946 -0.0160351 0.000423 -0.000267589 -0.00703629 -0.00433961 2650 
2013 1 -0.00273377 0.00281188 -0.0161195 0.000423 -6.21088e-05 -0.00297451 0.00266081 2650 
2301 1 -0.004222 0.00490001 -0.016305 4.2e-05 0 -0.011753 0 2650 
3121 1 -0.00312425 0.00507191 -0.0162027 0.000423 0.0292552 0.00121421 5.81941e-05 2650 
1388 1 -0.00105143 0.00521636 -0.0159057 0.000116 -0.039288 0.0021603 0.0169103 2650 
302 1 -0.000264394 0.00654595 -0.016236 0.000116 0.0171051 0.0203877 0.0103663 2650 
3934 1 -0.001977 0.00788901 -0.016218 0.000116 0 -0.011753 0 2650 
1617 1 -0.00345513 0.00976704 -0.016464 0.000116 0.0304013 0.00375314 0.0183235 2650 
2924 1 -0.000213077 0.011189 -0.0163169 0.000116 -0.059039 0.0353164 0.00422158 2650 
3573 1 -0.0034127 0.0303764 -0.0164243 0.000116 0.222562 -0.254179 0.0393607 2650 
1173 1 -0.000428106 0.0344429 -0.0158981 0.000116 -0.136556 0.342033 -0.0293067 2650 
456 1 -0.00452682 0.0388221 -0.0158187 0.000423 -0.713021 -0.0435711 0.131566 2650 
4245 1 -0.00285603 0.0415407 -0.0163516 0.000116 -0.131082 0.152483 0.00432583 2650 
1357 1 -0.00254765 0.0512791 -0.016256 0.000423 0.0681058 0.285169 -0.0155587 2650 
545 1 -0.00233142 -0.00148668 -0.0151039 4.2e-05 -0.000252069 0.0758595 -0.196498 2650 
623 1 -0.00675125 0.000489258 -0.0151759 0.000116 0.0135085 -0.00577665 0.0160157 2650 
1991 1 -0.00526771 0.000517774 -0.0152139 0.000656 -0.0197706 -0.00214867 0.00868857 2650 
3637 1 -0.00381012 0.00226755 -0.0152314 0.000423 -0.00927208 0.0142333 -0.0137243 2650 
3239 1 -0.00342867 0.00176668 -0.0157275 0.000116 -0.0332144 0.00168872 0.00188105 2650 
676 1 -0.0026454 0.00189631 -0.015663 0.000423 -0.0153526 -0.000110762 0.0217663 2650 
3043 1 -0.00145948 0.00247005 -0.0155881 0.000116 0.127084 0.0078871 0.090283 2650 
2399 1 -0.002418 0.00334101 -0.015541 0.000116 0 -0.011753 0 2650 
2283 1 -0.00224809 0.00382701 -0.0156371 0.000116 -0.0318858 -0.01081 -0.0228231 2650 
2313 1 -0.0048398 0.00575316 -0.0151286 0.000656 0.00856952 0.0288131 0.00982472 2650 
2438 1 -0.00561897 0.00666656 -0.0153503 0.000423 0.0095107 -0.00232096 0.00866566 2650 
978 1 -0.00491443 0.00682353 -0.0157401 0.000116 0.015313 -0.00383775 -0.0151954 2650 
963 1 -0.0057622 0.00719721 -0.0152341 0.000116 -0.029376 -0.065298 -0.0412241 2650 
1219 1 -0.000618617 0.00713195 -0.0157183 0.000656 0.0133734 0.0239605 0.00857101 2650 
1620 1 -0.0029874 0.00819508 -0.0156818 0.000116 0.0529387 0.0514306 -0.00503745 2650 
2969 1 -0.00144304 0.00821565 -0.0150911 0.000656 -0.00781599 0.0183331 -4.51083e-05 2650 
1483 1 -0.00032104 0.00856237 -0.0153265 0.000423 -0.0010087 0.0213686 -0.00667363 2650 
3830 1 -0.006879 0.00944101 -0.015411 4.2e-05 0 -0.011753 0 2650 
86 1 -0.002064 0.00914501 -0.015055 0.000116 0 -0.011753 0 2650 
3177 1 -0.001068 0.00894501 -0.015412 4.2e-05 0 -0.011753 0 2650 
1228 1 -0.00144113 0.00930773 -0.0150113 0.000423 -0.0026547 0.0243513 0.000515369 2650 
371 1 -0.000456425 0.00996831 -0.0152842 0.000423 0.000724313 -0.00601752 -0.0061741 2650 
938 1 -0.000869 0.010351 -0.015416 0.000116 0 -0.011753 0 2650 
568 1 -0.00252139 0.0167811 -0.0152168 0.000423 0.0646767 0.0324089 0.0265592 2650 
142 1 -0.00443184 0.0234359 -0.015151 0.000423 -0.0600809 0.0373384 0.0570253 2650 
1022 1 -0.00289704 -0.00203875 -0.0143153 0.000423 -0.0361806 0.0454744 -0.169588 2650 
2827 1 -0.00512462 -0.00123646 -0.0142497 0.000116 -0.0201753 -0.0226203 0.0017234 2650 
2817 1 -0.00178802 -0.00147016 -0.0144037 0.000116 0.0100645 -0.056664 0.00630574 2650 
1053 1 -0.007469 -0.000500986 -0.014946 0.000116 0 -0.011753 0 2650 
509 1 -0.00737205 -0.000351601 -0.0142474 0.000116 -0.00521486 0.00944493 -0.0325939 2650 
2332 1 -0.00432985 0.000125599 -0.0142494 0.000423 -0.0114447 -0.00779769 0.00753018 2650 
222 1 -0.00223333 2.55714e-05 -0.0146797 0.000656 -0.0189906 -0.0240038 0.0410277 2650 
2922 1 -0.00660091 0.00151259 -0.0146052 0.000116 -0.0108987 -0.0113206 0.0393947 2650 
220 1 -0.0036272 0.00260712 -0.0148228 4.2e-05 0.00197382 0.00663681 0.00671825 2650 
1171 1 -0.00867289 0.00417501 -0.0143035 0.000116 0.0131753 -0.0110464 0.0150896 2650 
3365 1 -0.002315 0.00576701 -0.014552 0.000116 0 -0.011753 0 2650 
3950 1 -0.00713833 0.00646288 -0.0144627 0.000656 0.000269197 -0.0034931 0.0278554 2650 
1618 1 -0.00844119 0.00775963 -0.0143219 0.000116 -0.0222988 0.059375 0.0201275 2650 
581 1 -0.00560546 0.00865336 -0.0143483 0.000423 -0.000593495 -0.0101803 -0.00423903 2650 
1827 1 -0.00665875 0.00946284 -0.0143132 0.000116 -0.0386186 0.00754243 -0.0442276 2650 
233 1 -0.00477804 0.00978239 -0.0146505 0.000423 0.000342891 -0.00976437 -0.0328705 2650 
3669 1 -0.000254934 0.0106462 -0.0146631 0.000423 0.00220454 -0.00743356 -0.00383523 2650 
3644 1 -0.000936362 0.012412 -0.0149236 0.000423 -0.00432743 0.00711996 -0.0325914 2650 
478 1 -0.0075234 0.0150053 -0.0143524 0.000423 -0.0255767 0.012458 -0.051203 2650 
913 1 -0.00105302 0.0246893 -0.0149635 0.000423 -0.0131935 0.0940792 0.0439723 2650 
1886 1 -0.0672538 -0.00610858 -0.0134095 0.000423 -0.717952 0.00178547 3.52925 2650 
1468 1 -0.00457093 -0.00249002 -0.0137755 0.000423 -0.0197001 -0.0470204 -0.0326717 2650 
3733 1 -0.00654621 0.00116111 -0.0137143 0.000656 -0.0232119 0.0173762 0.0152854 2650 
1032 1 -0.00787958 0.00388872 -0.013924 0.000423 -0.0173367 -0.00904293 -0.0556269 2650 
3587 1 -0.00608593 0.00389246 -0.0141128 0.000116 -0.0152422 -0.0151231 -0.00566973 2650 
234 1 -0.00096733 0.00375398 -0.0135487 0.000423 0.0351287 -0.0167305 0.0264562 2650 
2512 1 -0.00948904 0.00430622 -0.0136657 0.000116 0.018779 -0.0192413 0.00230208 2650 
4165 1 -0.00517229 0.00401323 -0.0137237 0.000656 -6.3943e-05 -0.032131 0.00827285 2650 
2918 1 -0.00789228 0.00497601 -0.0138747 0.000116 -0.0132236 0.0205789 -0.0380223 2650 
1288 1 -0.002467 0.00707001 -0.014044 0.000116 0 -0.011753 0 2650 
4227 1 -0.000370628 0.00694771 -0.0138631 0.000116 -0.00921828 -0.0161692 0.0154311 2650 
2322 1 -0.00833155 0.00721436 -0.013593 0.000656 -0.010949 -0.0100426 0.00333341 2650 
3515 1 -0.00718508 0.00774833 -0.0141215 0.000656 -0.0103794 -0.0121819 0.00307219 2650 
508 1 -0.00968684 0.00833337 -0.0134216 0.000116 -0.0609474 0.0130298 0.0475554 2650 
4190 1 -0.00835513 0.00856608 -0.0141839 0.000423 -0.009489 7.8582e-05 0.00632979 2650 
2222 1 -0.000450217 0.00800995 -0.0141712 0.000423 -0.00549102 -0.00568171 -0.00117535 2650 
4257 1 -0.00821354 0.00991555 -0.0140664 0.000116 0.0101268 -0.0416798 0.0036163 2650 
1476 1 -0.006941 0.00987001 -0.013435 0.000423 0 -0.011753 0 2650 
1986 1 -0.00291097 0.00984242 -0.0137747 0.000656 0.00762539 0.0149956 0.0116892 2650 
1409 1 -0.00044 0.01085 -0.013868 0.000116 0 -0.011753 0 2650 
3007 1 -0.00133046 0.0113946 -0.0139928 0.000423 -0.0135196 -0.00505473 -0.0280609 2650 
3216 1 -0.00462201 0.0263172 -0.0134984 0.000423 -0.00544148 0.107266 0.0543995 2650 
3229 1 -0.0673695 -0.0277671 -0.0128218 0.000423 -0.973275 0.0232847 5.20256 2650 
3154 1 -0.067705 -0.0174878 -0.0126859 0.000116 -1.02106 -0.116243 5.456 2650 
3470 1 -0.0677444 -0.0179899 -0.012477 0.000116 -0.985097 -0.201777 5.45908 2650 
4331 1 -0.0676745 -0.0124677 -0.012857 0.000116 -0.669449 -0.318741 3.21207 2650 
3153 1 -0.00147401 -0.00280583 -0.0133535 0.000116 0.0575311 -0.0297429 -0.0490481 2650 
2172 1 -0.00782417 -0.00163911 -0.0131109 0.000116 0.0554355 0.00150652 -0.0523356 2650 
3551 1 -0.00651522 0.000274052 -0.0130312 0.000423 -0.015336 0.00523015 0.00637389 2650 
4126 1 -0.00484365 0.00015639 -0.0132524 0.000116 -0.0261531 0.0084042 0.00402279 2650 
2525 1 -0.004063 0.00129701 -0.013231 4.2e-05 0 -0.011753 0 2650 
2619 1 -0.005851 0.00211301 -0.012854 0.000116 0 -0.011753 0 2650 
3880 1 -0.010277 0.00302901 -0.012913 0.000423 0 -0.011753 0 2650 
2609 1 -0.00886 0.00283701 -0.013248 0.000116 0 -0.011753 0 2650 
3917 1 -0.003984 0.00359801 -0.012703 0.000116 0 -0.011753 0 2650 
2059 1 -0.003583 0.00380701 -0.012756 0.000116 0 -0.011753 0 2650 
3322 1 -0.00347535 0.00461564 -0.0128251 0.000423 0.00110678 0.0140263 0.0123959 2650 
2596 1 -0.00968055 0.00486994 -0.0126405 0.000116 -0.0442582 -0.0431064 0.0384975 2650 
2912 1 -0.00562052 0.00481223 -0.0132408 0.000116 0.00196064 0.0151142 0.00117299 2650 
4078 1 -0.00920822 0.006205 -0.0127016 0.000423 -0.0196946 -0.00953845 0.00130892 2650 
450 1 -0.00635657 0.00570542 -0.0131783 0.000656 0.0112424 0.0469319 0.00733295 2650 
104 1 -0.00301007 0.00594894 -0.0131207 4.2e-05 -0.00674979 0.0150481 0.0116551 2650 
1427 1 -0.002948 0.00613801 -0.013376 4.2e-05 0 -0.011753 0 2650 
3446 1 -0.00241818 0.00569349 -0.012665 0.000423 0.014297 -0.016402 -0.00312272 2650 
2913 1 -0.00780334 0.0067304 -0.0133034 0.000116 -0.0140945 -0.0228944 -0.00540615 2650 
4296 1 -0.00377799 0.00675283 -0.0131746 0.000423 -0.0431702 0.0421068 0.0473826 2650 
3259 1 -0.00878234 0.00751574 -0.0129841 0.000116 -0.0089878 -0.00810535 0.00538998 2650 
1584 1 -0.00153273 0.00772345 -0.0127791 0.000423 -0.00963006 0.0395817 0.04039 2650 
1237 1 -0.00999016 0.00791502 -0.0131632 0.000423 0.0147702 0.0203613 -0.00922036 2650 
1795 1 -0.00872703 0.00813395 -0.0129867 0.000423 0.00165908 -0.0118589 -0.000959055 2650 
1250 1 -0.00794246 0.00863751 -0.0131572 0.000423 -0.0109693 -0.0170514 -0.0143142 2650 
1769 1 -0.0065116 0.0086404 -0.013371 0.000656 -0.0148717 0.000652235 -0.0101128 2650 
2483 1 -0.00904725 0.00921407 -0.0129765 0.000116 0.00258646 -0.0218162 0.0129531 2650 
205 1 -0.000744 0.00885401 -0.01334 0.000116 0 -0.011753 0 2650 
289 1 -0.00160141 0.00974465 -0.0132684 0.000116 -0.0188061 -0.000940224 -0.0594549 2650 
1775 1 -0.00822866 0.0116119 -0.0130467 0.000423 -7.29146e-05 -0.011186 -0.000346901 2650 
949 1 -0.00665748 0.0112228 -0.0128036 0.000116 -0.0176518 0.0277962 -0.00593252 2650 
3632 1 -0.00974502 0.0127969 -0.0133634 0.000423 -0.0216519 0.000467483 0.0139725 2650 
959 1 -0.00819215 0.0132586 -0.0133574 0.000116 -0.0723779 0.0623805 -0.0339909 2650 
2467 1 -0.00109678 0.0310683 -0.013369 0.000423 0.0301791 0.103437 0.0421276 2650 
2819 1 -0.0188448 -0.00375104 -0.0126373 0.000116 -2.45147 -0.0843237 -1.56078 2650 
330 1 -0.00831175 -0.00315505 -0.0122534 4.2e-05 -0.0696064 -0.0147686 0.0345761 2650 
4097 1 -0.00889826 -0.00221841 -0.0122397 0.000423 -0.0116536 0.00229875 0.0371095 2650 
2468 1 -0.00379544 -0.00189507 -0.0121286 0.000423 -0.0504222 0.0211365 0.000191011 2650 
1763 1 -0.001143 -0.00201699 -0.012442 0.000656 0 -0.011753 0 2650 
3191 1 -0.00732601 -0.000281972 -0.0125541 0.000656 -0.0197381 0.00193499 -0.0014393 2650 
1422 1 -0.003881 -0.000170986 -0.012349 4.2e-05 0 -0.011753 0 2650 
541 1 -0.00641992 0.000782017 -0.0126242 4.2e-05 -0.0143735 0.00954058 0.00936495 2650 
1799 1 -0.00322995 0.000636305 -0.0120564 0.000423 7.10678e-05 -0.0118308 4.63239e-05 2650 
3956 1 -0.00904504 0.00152899 -0.0123117 0.000656 -0.000640959 -0.0104529 -0.000368355 2650 
3201 1 -0.00633601 0.00156919 -0.0122676 0.000423 -0.00608722 0.0216696 0.0089772 2650 
3389 1 -0.010415 0.00209501 -0.012026 0.000116 0 -0.011753 0 2650 
3645 1 -0.00608183 0.00328744 -0.012433 0.000423 -0.0357151 -0.0039173 0.0164321 2650 
1192 1 -0.00523305 0.00374199 -0.0121162 0.000116 -0.0160738 0.0171838 -0.0228619 2650 
411 1 -0.0105325 0.00448249 -0.0120911 0.000116 -0.00787832 -0.00657823 -8.20909e-05 2650 
3826 1 -0.009208 0.00399001 -0.012552 0.000116 0 -0.011753 0 2650 
708 1 -0.00278181 0.00444241 -0.0123437 0.000423 0.0112279 -0.00894022 0.00239788 2650 
3380 1 -0.0022443 0.00430283 -0.0119661 0.000116 -0.00133046 -0.0120531 0.0302183 2650 
2194 1 -0.002241 0.0046662 -0.0124502 4.2e-05 0.00491046 0.00111596 0.00228026 2650 
2957 1 -0.00146652 0.00460943 -0.0122629 4.2e-05 0.0205169 0.0248349 -0.000218849 2650 
3316 1 -0.008979 0.00474301 -0.012376 0.000423 0 -0.011753 0 2650 
1261 1 -0.00745046 0.0049244 -0.0124494 0.000423 -0.000148786 -0.00207045 -0.0014312 2650 
3362 1 -0.00265983 0.00507589 -0.0123393 0.000116 0.000350619 -0.00253681 -0.00404217 2650 
3030 1 -0.001189 0.00625301 -0.012596 0.000116 0 -0.011753 0 2650 
2219 1 -0.00283441 0.00683376 -0.0122216 0.000423 0.0430827 0.0512131 0.0198144 2650 
445 1 -0.0096466 0.00728721 -0.0122938 0.000656 -0.00157651 -0.00352117 -0.00927671 2650 
4318 1 -0.00860503 0.00760193 -0.0123024 0.000423 0.000634828 -0.00541564 0.00164809 2650 
1495 1 -0.004483 0.00772101 -0.012591 0.000116 0 -0.011753 0 2650 
3684 1 -0.004262 0.00780684 -0.0125675 0.000116 0.00413104 -0.0230128 -0.00941473 2650 
2344 1 -0.000913421 0.00721394 -0.0122741 0.000423 0.00597873 -0.023338 -0.0226217 2650 
4179 1 -0.00723518 0.00861782 -0.0122653 0.000423 -0.00767678 -0.0221048 -0.00852388 2650 
3173 1 -0.004958 0.00838201 -0.012321 4.2e-05 0 -0.011753 0 2650 
1519 1 -0.00342922 0.00829761 -0.0118765 0.000116 -0.0659584 -0.0345951 0.00219142 2650 
2630 1 -0.001036 0.00859001 -0.012074 4.2e-05 0 -0.011753 0 2650 
4002 1 -0.000443 0.00841401 -0.01223 0.000116 0 -0.011753 0 2650 
3847 1 -0.00962465 0.00878874 -0.0125163 0.000656 0.00191913 0.0130802 -0.00623859 2650 
2453 1 -0.00623396 0.00874449 -0.0122928 0.000423 0.00783944 0.0181262 -0.00771338 2650 
1423 1 -0.00145 0.01007 -0.012526 4.2e-05 0 -0.011753 0 2650 
2781 1 -0.00540918 0.0103329 -0.0118702 0.000423 -0.0147005 -0.0142306 -0.0211936 2650 
3106 1 -0.0078842 0.0121683 -0.0124587 0.000423 -0.042507 0.0242048 -0.0146805 2650 
1802 1 -0.00407162 0.0124538 -0.0122026 0.000423 0.00500259 -0.000364755 -0.0111755 2650 
2205 1 -0.00514106 0.0132782 -0.0120993 0.000656 -0.00206311 0.000112593 -0.00429342 2650 
1143 1 -0.000734456 0.0145981 -0.012597 0.000423 0.0070315 0.0110531 -0.00616027 2650 
3932 1 -0.00448852 0.0207974 -0.0121344 0.000116 0.03152 0.0411719 0.0597923 2650 
675 1 -0.00539571 0.0224408 -0.0118691 0.000423 -0.0171714 0.0807922 0.0289201 2650 
352 1 -0.00635915 0.0456285 -0.0118638 0.000423 0.0275371 -0.163578 -0.159114 2650 
1213 1 -0.0674353 -0.0160203 -0.0111118 0.000656 -0.824703 -0.131296 4.9259 2650 
3505 1 -0.006952 -0.00300899 -0.011235 4.2e-05 0 -0.011753 0 2650 
2666 1 -0.00791811 -0.00161896 -0.0117009 0.000423 0.00506312 -0.0128769 -0.0752945 2650 
800 1 -0.00671021 -0.0021856 -0.0116924 0.000423 -0.00429202 -0.0325333 0.0439645 2650 
440 1 -0.00061 -0.00170699 -0.011485 4.2e-05 0 -0.011753 0 2650 
2939 1 -0.00942069 -0.000356768 -0.0111351 0.000116 -0.00341769 -0.0275913 0.0148239 2650 
3200 1 -0.00875924 8.54593e-05 -0.0110931 0.000423 -0.0275514 -0.0115593 0.0194145 2650 
756 1 -0.00545801 0.00071209 -0.011598 0.000116 0.041834 0.0697036 0.0154272 2650 
3894 1 -0.005583 0.00146401 -0.011098 0.000116 0 -0.011753 0 2650 
1063 1 -0.009531 0.00201901 -0.011683 0.000116 0 -0.011753 0 2650 
388 1 -0.00705645 0.00200218 -0.0117352 0.000116 0.0212466 0.0335067 0.0250458 2650 
2062 1 -0.00702041 0.00162557 -0.0113767 0.000116 -0.0517879 -0.0811336 0.00337392 2650 
3477 1 -0.00887783 0.00253376 -0.0118035 0.000116 0.0616358 -0.0139442 -0.0219299 2650 
1125 1 -0.00648913 0.00340233 -0.0112925 0.000423 -0.0443086 0.0114405 0.0272453 2650 
2294 1 -0.004894 0.00370001 -0.011565 0.000116 0 -0.011753 0 2650 
2474 1 -0.00264624 0.00380566 -0.0114253 0.000423 -0.00380852 -0.00865862 -0.00797376 2650 
2285 1 -0.0114439 0.00404027 -0.0117937 0.000116 0.0175306 0.0103543 0.003719 2650 
1822 1 -0.00885759 0.00457534 -0.0111295 0.000116 -0.0361035 -0.0195415 0.0016013 2650 
3787 1 -0.00644927 0.00433533 -0.01137 0.000116 -0.0024271 -0.00223267 -0.0195234 2650 
878 1 -0.00391811 0.00452885 -0.01122 4.2e-05 -0.000281569 -0.00211859 -0.00050102 2650 
1215 1 -0.0117243 0.00548479 -0.0111404 0.000656 -0.000279333 -0.00226461 0.00683019 2650 
3221 1 -0.00839214 0.0051649 -0.0116486 0.000423 -0.0383607 -5.03589e-05 -0.0190963 2650 
1758 1 -0.00201 0.00501401 -0.01144 4.2e-05 0 -0.011753 0 2650 
4027 1 -0.003218 0.00614501 -0.011075 0.000116 0 -0.011753 0 2650 
2409 1 -0.002586 0.00608401 -0.011527 4.2e-05 0 -0.011753 0 2650 
2338 1 -0.00939926 0.0070998 -0.0111549 0.000423 -0.0329479 -0.00278614 0.0142677 2650 
763 1 -0.00550042 0.00651103 -0.0113622 4.2e-05 -0.0107376 -0.0192397 -0.014763 2650 
3456 1 -0.00361768 0.00683232 -0.0113023 0.000423 -0.000997028 -0.0111859 -0.00366568 2650 
3283 1 -0.000564385 0.00671353 -0.0116954 4.2e-05 0.0397515 0.0433617 -0.0233311 2650 
713 1 -0.00781234 0.00766571 -0.011233 0.000423 -0.0119296 0.00314301 0.00578085 2650 
2547 1 -0.0119279 0.00856119 -0.0112141 0.000423 -0.0172305 -0.00928707 0.00629179 2650 
2798 1 -0.00806385 0.00858827 -0.0117727 0.000423 0.0168646 0.022512 -0.0112906 2650 
65 1 -0.0122387 0.00905001 -0.0112775 0.000116 -0.0150343 -0.00322364 0.0082715 2650 
4314 1 -0.0106625 0.00907734 -0.0114397 0.000423 0.0169785 -0.00769928 0.00870958 2650 
2092 1 -0.00328578 0.00897647 -0.0115182 0.000656 -0.0436925 0.0013821 -0.0433895 2650 
191 1 -0.0117529 0.00991607 -0.0111987 0.000116 -0.0068407 0.0371391 0.023513 2650 
3145 1 -0.006381 0.010536 -0.011273 0.000116 0 -0.011753 0 2650 
976 1 -0.005828 0.011913 -0.011785 0.000116 0 -0.011753 0 2650 
4167 1 -0.00303035 0.0130555 -0.0112223 0.000656 0.00543059 0.0184819 -0.00286251 2650 
3798 1 -0.00437838 0.0196442 -0.0111427 0.000116 -0.0483102 0.213285 0.0286816 2650 
2109 1 -0.00632127 0.0252455 -0.0112562 0.000423 -0.0277695 0.107912 0.0279852 2650 
91 1 -0.0681002 -0.00452621 -0.0103499 0.000116 -0.48953 0.143376 3.65905 2650 
2413 1 -0.0101914 -0.00331572 -0.0105339 4.2e-05 -0.203354 -0.0341067 -0.0715198 2650 