ITEM: TIMESTEP
5863314
ITEM: NUMBER OF ATOMS
4367
ITEM: BOX BOUNDS ff ff ff
-0.15 0.15
-0.15 0.06
-0.15 0.15
ITEM: ATOMS id type x y z radius vx vy vz density 
2274 1 -0.00814576 -0.0511066 -0.0683898 0.000116 -3.84862 0.309817 0.416283 2650 
3957 1 -0.00467714 -0.0469753 -0.0681855 0.000656 -5.87294 0.176369 0.430314 2650 
2256 1 -0.0148123 -0.0490709 -0.0672726 0.000116 -4.87889 0.120917 1.06317 2650 
1856 1 -0.0231836 -0.0517152 -0.0648657 0.000116 -4.52374 -0.264368 1.62297 2650 
482 1 -0.0263194 -0.0559569 -0.0633244 0.000423 -5.12908 -0.165128 2.09027 2650 
2833 1 -0.0439175 -0.0483632 -0.0530688 0.000116 -3.52504 0.513282 2.90448 2650 
3945 1 -0.043349 -0.0472427 -0.0536292 4.2e-05 -7.29197 0.356115 5.89167 2650 
2314 1 -0.0638527 -0.0513253 -0.02437 0.000656 -1.99969 0.514918 5.11328 2650 
2703 1 -0.0684116 -0.045362 -0.00805277 0.000116 -0.664928 -1.11611 5.57758 2650 
2317 1 -0.0683352 -0.0468482 -0.00125283 0.000656 -0.137603 0.062811 7.00152 2650 
1320 1 -0.0666189 -0.0460965 0.0177999 4.2e-05 2.03099 0.684789 7.66974 2650 
3426 1 -0.0417273 -0.0604141 0.0544217 0.000423 3.58781 -0.299884 2.74853 2650 
981 1 -0.00222079 -0.0394689 -0.0689212 4.2e-05 -3.30089 0.0262 0.0705914 2650 
1753 1 -0.00319705 -0.0262548 -0.0688827 4.2e-05 -6.61196 -0.571241 0.29045 2650 
1417 1 -0.00445094 -0.0145059 -0.0687401 0.000116 -5.09827 0.0745705 0.321357 2650 
2189 1 -0.000690502 -0.0149635 -0.0689545 4.2e-05 -6.27738 -0.405606 0.0644525 2650 
2501 1 -0.000106378 -0.0103871 -0.0688849 0.000116 -4.46979 -0.223498 0.0229341 2650 
1863 1 -0.00349563 -0.0100301 -0.0688697 4.2e-05 -3.32822 -0.203009 0.161954 2650 
2055 1 -0.0030489 -0.00851254 -0.0688171 0.000116 -6.70607 0.227141 0.299905 2650 
1317 1 -0.00345144 -0.00513867 -0.0688716 4.2e-05 -3.25069 -0.101791 0.152952 2650 
2251 1 -0.000279736 -0.0387578 -0.068577 0.000423 -5.24308 -0.279308 0.0283672 2650 
2028 1 -0.00954417 -0.032646 -0.0678946 0.000423 -4.60567 -0.105946 0.6742 2650 
1407 1 -0.00833243 -0.0324636 -0.068357 0.000116 -4.79786 0.0589158 0.577318 2650 
1256 1 -0.00527032 -0.0307769 -0.0683689 0.000423 -3.89468 -1.26681 0.197986 2650 
4376 1 -0.0111298 -0.0180148 -0.0680535 4.2e-05 -3.41697 -0.187151 0.562719 2650 
2544 1 -0.00748315 -0.017873 -0.0681687 0.000423 -4.91418 0.262524 0.529949 2650 
1593 1 -0.00666041 -0.0164399 -0.0682537 0.000423 -5.76527 0.182663 0.557656 2650 
4264 1 -0.0100271 -0.00891441 -0.0682248 4.2e-05 -4.1741 -0.0190142 0.600663 2650 
2527 1 -0.0111245 -4.20002e-05 -0.0680547 4.2e-05 -6.13576 -5.58318e-05 1.00431 2650 
2563 1 -0.00948632 -0.000423189 -0.0679193 0.000423 -6.4825 -0.00418023 0.912392 2650 
2788 1 -0.00688468 -0.000455705 -0.0682316 0.000423 -6.4136 -0.00412615 0.667673 2650 
2765 1 -0.0109882 -0.0389217 -0.0676908 0.000423 -4.93653 -0.295306 0.774988 2650 
3073 1 -0.01296 -0.0354292 -0.0677289 4.2e-05 -3.55286 0.713378 0.678095 2650 
816 1 -0.0130918 -0.0347342 -0.0673163 0.000423 -5.90085 0.00123662 1.13902 2650 
443 1 -0.0109433 -0.0246899 -0.0674634 0.000656 -5.74977 0.0147923 0.914715 2650 
670 1 -0.00809123 -0.0190331 -0.0678661 0.000656 -4.84457 0.12803 0.579442 2650 
3989 1 -0.0138851 -0.017067 -0.0671575 0.000423 -4.66066 -0.187804 0.955454 2650 
1752 1 -0.0129616 -0.0047388 -0.0677285 4.2e-05 -3.15615 -0.102143 0.591183 2650 
2954 1 -0.0122145 -0.000116256 -0.0677925 0.000116 -4.82554 0.000385431 0.862781 2650 
1961 1 -0.011986 -0.000116018 -0.0678329 0.000116 -4.8271 -0.000136732 0.851467 2650 
4360 1 -0.0116808 -0.000116003 -0.0678866 0.000116 -4.82852 4.46633e-05 0.832082 2650 
1781 1 -0.015586 -0.0337915 -0.0667832 0.000423 -5.261 0.412522 1.20631 2650 
4069 1 -0.0165788 -0.024347 -0.0665439 0.000423 -5.0158 -0.046219 1.2493 2650 
3881 1 -0.0148199 -0.0227927 -0.0669573 0.000423 -6.44993 -0.520244 1.415 2650 
3649 1 -0.0170169 -0.0188736 -0.0664326 0.000423 -5.03127 0.101174 1.27691 2650 
3351 1 -0.0177005 -0.00779512 -0.0665714 0.000116 -3.13992 -0.173368 0.81819 2650 
2 1 -0.016846 -0.0228331 -0.0662381 0.000656 -4.86949 0.202986 1.23947 2650 
4353 1 -0.0193171 -0.0180153 -0.0661195 0.000116 -6.91211 -0.218163 2.01898 2650 
3671 1 -0.0183836 -0.0174308 -0.0660674 0.000423 -4.83159 0.0192741 1.3362 2650 
1500 1 -0.0181963 -0.0141421 -0.0659753 0.000116 -3.73486 -0.585964 -2.22553 2650 
3725 1 -0.0193068 -0.0119365 -0.0662006 4.2e-05 -3.21593 -0.209172 0.954294 2650 
1203 1 -0.0234514 -0.0295977 -0.0648473 4.2e-05 -4.75559 -0.177748 1.69784 2650 
1447 1 -0.0217802 -0.0277609 -0.065028 0.000423 -5.19192 -0.0942081 1.69181 2650 
2691 1 -0.022534 -0.0258835 -0.0647704 0.000423 -5.03842 -0.281543 1.76741 2650 
2048 1 -0.0218855 -0.0231003 -0.0653149 0.000116 -5.28478 -0.720631 1.78334 2650 
4132 1 -0.0234815 -0.0175609 -0.0647575 0.000116 -3.59552 -0.267941 1.3179 2650 
1924 1 -0.0208321 -0.0157936 -0.0653373 0.000423 -4.56202 -0.164039 1.46632 2650 
4068 1 -0.021636 -0.0149185 -0.0650759 0.000423 -4.5461 -0.046157 1.5053 2650 
2593 1 -0.0245557 -0.01486 -0.0643579 0.000116 -3.45202 -0.143547 1.30305 2650 
575 1 -0.0247971 -0.0249023 -0.0639377 0.000423 -5.15149 -0.372393 2.00547 2650 
4213 1 -0.0261058 -0.0215232 -0.0634145 0.000423 -5.16557 -0.03397 2.14153 2650 
681 1 -0.025236 -0.0218216 -0.0637652 0.000423 -5.1803 -0.100766 2.02627 2650 
3891 1 -0.0269376 -0.00759779 -0.0630656 0.000423 -3.55138 -0.00249182 1.49478 2650 
3688 1 -0.0307541 -0.0259051 -0.0616229 0.000116 -4.83038 -0.256899 2.34612 2650 
2404 1 -0.030368 -0.0217477 -0.0618276 0.000116 -3.58331 0.0831081 1.76954 2650 
1952 1 -0.0301587 -0.0118684 -0.0619168 0.000116 -4.38735 0.312266 2.00986 2650 
3718 1 -0.0323026 -0.0319847 -0.0609061 4.2e-05 -4.24115 -0.288507 2.26452 2650 
1180 1 -0.0318126 -0.00897682 -0.061081 0.000116 -5.44061 -0.0335098 2.8058 2650 
15 1 -0.00804469 -0.00558709 -0.0612005 0.000423 -1.23341 -0.199153 -9.46372 2650 
3055 1 -0.0324906 -0.0271312 -0.0607158 0.000116 -4.24778 -0.108905 2.39225 2650 
4019 1 -0.0330451 -0.0153604 -0.0604331 0.000116 -3.54609 0.215631 1.98813 2650 
2186 1 -0.0329736 -0.0105975 -0.0604687 0.000116 -4.10074 0.198858 2.31505 2650 
3570 1 -0.0351307 -0.0214202 -0.0592522 0.000116 -4.7924 0.560686 2.83466 2650 
341 1 -0.0346646 -0.028078 -0.0589031 0.000656 -3.952 -0.084562 2.3204 2650 
3353 1 -0.0364019 -0.0238295 -0.0584799 0.000116 -5.87615 -0.764276 3.67058 2650 
1335 1 -0.0356807 -0.0180606 -0.0585645 0.000423 -4.22489 -0.0530578 2.54326 2650 
3815 1 -0.0381438 -0.0111619 -0.0573589 0.000116 -2.72484 -0.226648 1.78986 2650 
200 1 -0.0399007 -0.0324701 -0.0561514 0.000116 -5.33708 -0.554017 3.79046 2650 
3256 1 -0.0102645 -0.00708904 -0.0565231 0.000116 -1.59133 -0.294685 -8.73086 2650 
1520 1 -0.0408458 -0.0262622 -0.0554677 0.000116 -5.68119 0.17724 4.17321 2650 
167 1 -0.0405143 -0.0212669 -0.0557099 0.000116 -4.50691 0.256274 3.2888 2650 
1798 1 -0.0396964 -0.00854344 -0.0559213 0.000423 -4.112 0.10814 2.91585 2650 
4204 1 -0.0409269 -0.00873249 -0.0550279 0.000423 -3.07977 -0.212225 2.30979 2650 
2296 1 -0.042625 -0.00625108 -0.0541124 0.000116 -3.85678 0.590687 3.02766 2650 
2487 1 -0.0435104 -0.0446127 -0.0534023 0.000116 -4.14055 -0.370387 3.37259 2650 
3018 1 -0.0431639 -0.027977 -0.0532904 0.000423 -3.87431 0.0966287 3.17718 2650 
1956 1 -0.0438043 -0.0119324 -0.0531618 0.000116 -3.70548 0.278184 3.05106 2650 
1832 1 -0.0439811 -0.000115998 -0.0530157 0.000116 -3.54791 0.00112712 2.92301 2650 
2732 1 -0.0443701 -0.0337238 -0.0526905 0.000116 -4.34683 -0.392548 3.6546 2650 
1157 1 -0.0442194 -0.0139422 -0.0528167 0.000116 -2.62605 -0.23905 2.20876 2650 
323 1 -0.0452882 -0.0254276 -0.0519993 4.2e-05 -6.83084 -0.50298 5.94618 2650 
1784 1 -0.0449951 -0.0120798 -0.0517541 0.000423 -3.66838 0.334838 3.26001 2650 
1210 1 -0.0475588 -0.0115044 -0.0499284 4.2e-05 -2.31996 -0.263308 2.23829 2650 
2966 1 -0.0473554 -0.030127 -0.049279 0.000656 -4.10538 0.0166936 4.06975 2650 
1042 1 -0.0495427 -0.0384117 -0.0474167 0.000423 -3.63314 -0.107603 3.91938 2650 
615 1 -0.049721 -0.000116004 -0.0476743 0.000116 -3.53891 0.000490328 3.68978 2650 
3381 1 -0.0505653 -0.0162216 -0.046767 0.000116 -2.77707 -0.159045 2.94244 2650 
2612 1 -0.0513084 -0.0219684 -0.0459497 0.000116 -4.07543 0.25248 4.48926 2650 
3088 1 -0.0520316 -0.0340072 -0.0446705 0.000423 -3.73071 0.200006 4.33194 2650 
2074 1 -0.0525701 -0.00129681 -0.0445127 0.000116 -2.5556 -0.082805 3.09359 2650 
2911 1 -0.053246 -0.0233758 -0.043217 0.000423 -4.05115 -0.311864 5.01042 2650 
3196 1 -0.0537186 -0.0126664 -0.0426287 0.000423 -1.99584 -0.430653 2.5044 2650 
902 1 -0.0543067 -0.0349698 -0.0418773 0.000423 -3.48743 -0.388948 4.51092 2650 
2051 1 -0.054119 -0.0134374 -0.0426161 0.000116 -2.96486 0.665676 3.81024 2650 
3339 1 -0.0537428 -0.0116813 -0.0425985 0.000423 -2.84081 -0.26424 3.57058 2650 
3840 1 -0.0550229 -0.040186 -0.0405408 0.000656 -3.66617 -0.160398 4.97096 2650 
850 1 -0.0557189 -0.023161 -0.040502 0.000116 -2.6315 0.258963 3.65381 2650 
2745 1 -0.0554434 -0.0155444 -0.0410025 4.2e-05 -2.9152 0.327864 3.95631 2650 
83 1 -0.0556349 -0.00495865 -0.0406173 0.000116 -3.71867 -0.178918 5.08635 2650 
4305 1 -0.0558647 -0.00486951 -0.0397752 0.000423 -2.89546 -0.0753052 4.05166 2650 
579 1 -0.0558266 -0.00259352 -0.0398293 0.000423 -2.86173 -0.058249 4.0007 2650 
528 1 -0.0567474 -0.00601997 -0.0390484 0.000116 -2.9248 -0.148792 4.25604 2650 
114 1 -0.0566917 -0.0266261 -0.0381746 0.000656 -3.3716 -0.354425 5.028 2650 
491 1 -0.0574759 -0.0118993 -0.0374103 0.000423 -2.19012 -0.169823 3.36433 2650 
4338 1 -0.0578001 -0.00858117 -0.0374728 0.000116 -2.20293 -0.0869184 3.42077 2650 
689 1 -0.0581637 -0.032546 -0.0363317 0.000423 -3.40174 0.051387 5.43858 2650 
2023 1 -0.0580363 -0.030108 -0.0365363 0.000423 -3.03087 -0.00138811 4.81656 2650 
379 1 -0.0578766 -0.0244841 -0.0367857 0.000423 -3.0049 0.158838 4.73117 2650 
2350 1 -0.0584855 -0.0253117 -0.0358092 0.000423 -2.89889 0.302423 4.72737 2650 
1655 1 -0.058848 -0.0331799 -0.0347582 0.000656 -3.30594 -0.0528504 5.58612 2650 
2436 1 -0.0591865 -0.0288202 -0.034642 0.000423 -2.39438 0.243862 4.13607 2650 
827 1 -0.0602938 -0.0271339 -0.0333126 0.000116 -2.54969 0.469882 4.58974 2650 
1716 1 -0.0602922 -0.0128206 -0.0333078 0.000116 -2.56853 0.442432 4.65031 2650 
3580 1 -0.0600488 -0.00847331 -0.0337516 0.000116 -2.44378 0.405773 4.32941 2650 
4037 1 -0.0606714 -0.0372092 -0.0326189 0.000116 -2.63889 -0.99742 4.92516 2650 
2679 1 -0.0603177 -0.0318872 -0.0326311 0.000423 -2.55103 0.106321 4.71997 2650 
1364 1 -0.00127251 -0.00596248 -0.0329963 0.000423 -0.21624 -0.317415 -4.47876 2650 
2052 1 -0.061018 -0.0158452 -0.0319647 0.000116 -1.48525 -0.224515 2.98701 2650 
1503 1 -0.061082 -0.00861622 -0.0318413 0.000116 -1.93571 0.0653465 3.96824 2650 
3785 1 -0.0615323 -0.0106327 -0.0308805 0.000116 -2.55129 -1.13385 4.38677 2650 
3502 1 -0.0616744 -0.00652949 -0.0308396 4.2e-05 -1.50199 -0.138257 2.90187 2650 
555 1 -0.0611332 -0.0337109 -0.0305609 0.000656 -2.80047 -0.0792637 5.62131 2650 
3005 1 -0.0613408 -0.00995411 -0.0306545 0.000423 -2.09666 -0.209123 4.07691 2650 
3601 1 -0.0621155 -0.0436655 -0.0297766 0.000116 -2.63227 0.476593 5.51497 2650 
2680 1 -0.0618884 -0.0149973 -0.0295278 0.000423 -1.88581 -0.197951 3.95086 2650 
1169 1 -0.0258592 -0.00388287 -0.0289699 0.000116 -3.88024 -0.0851977 -4.34701 2650 
1433 1 -0.0624236 -0.0150857 -0.0278063 0.000656 -1.87499 -0.336293 3.91211 2650 
3683 1 -0.0629272 -0.0116249 -0.0280078 0.000116 -2.16118 0.0726555 4.55315 2650 
3095 1 -0.0627084 -0.0105373 -0.0277594 0.000423 -2.05472 0.195625 4.68382 2650 
2875 1 -0.0629564 -0.0144407 -0.0271222 0.000423 -1.69368 -0.0634703 3.83248 2650 
1740 1 -0.0635299 -0.0241521 -0.0266261 0.000116 -1.91553 -0.0321105 4.53483 2650 
420 1 -0.0636099 -0.0148844 -0.0263807 0.000116 -1.31313 -0.211058 3.32321 2650 
2160 1 -0.0636628 -0.00161911 -0.0263017 0.000116 -1.62324 -0.159597 4.05924 2650 
3470 1 -0.0646833 -0.0175443 -0.0236868 0.000116 -1.91206 -0.222081 5.19936 2650 
3154 1 -0.0646059 -0.0172585 -0.0238958 0.000116 -1.88872 -0.100972 5.21288 2650 
3229 1 -0.0644259 -0.0277957 -0.0234843 0.000423 -1.9893 0.0104867 4.87268 2650 
1213 1 -0.064955 -0.0157519 -0.0212647 0.000656 -1.55114 -0.122314 4.72263 2650 
1886 1 -0.0653765 -0.00612614 -0.0207076 0.000423 -1.05468 0.0127967 3.41815 2650 
2601 1 -0.0660874 -0.0244776 -0.0194205 0.000116 -1.46354 0.611608 5.27444 2650 
4331 1 -0.0660569 -0.0118122 -0.0195329 0.000116 -0.943642 -0.306943 3.12487 2650 
893 1 -0.0661156 -0.0331117 -0.0181779 0.000423 -1.43094 0.0518878 5.31298 2650 
3174 1 -0.0664973 -0.0270374 -0.0182192 4.2e-05 -2.59636 -0.576702 9.47587 2650 
574 1 -0.0661234 -0.0189409 -0.0181834 0.000423 -1.48304 0.190904 5.46859 2650 
163 1 -0.0662829 -0.0303605 -0.0175659 0.000423 -1.45194 0.0594746 5.48756 2650 
2895 1 -0.0661812 -0.0172155 -0.0179697 0.000423 -1.38065 0.211647 5.07581 2650 
91 1 -0.0665139 -0.00482561 -0.0179145 0.000116 -0.95669 0.143058 3.55143 2650 
606 1 -0.000183 0.00315168 -0.016592 0.000116 0 -0.011753 0 2650 
3589 1 -0.000963466 0.00560699 -0.0167012 0.000116 0.154771 0.0635836 -0.00686375 2650 
188 1 -0.000705884 0.00961476 -0.0167926 0.000116 -0.0156058 0.0716121 0.00169132 2650 
2713 1 -0.000763 0.0101227 -0.016767 0.000116 0 -0.011753 0 2650 
2238 1 -0.0666355 -0.0310155 -0.0161783 0.000423 -1.13588 0.442925 4.70431 2650 
367 1 -0.0665973 -0.0205918 -0.0163654 0.000423 -1.36249 0.253547 5.53819 2650 
736 1 -0.00350823 0.00106394 -0.0164777 0.000116 -0.0354095 -0.0179405 0.00483888 2650 
150 1 -0.0031533 0.00132267 -0.0161477 0.000423 -0.0635667 0.0441481 0.00872881 2650 
2793 1 -0.00200391 0.00131445 -0.016186 0.000423 -0.000947019 0.106571 0.0232058 2650 
1679 1 -0.00363815 0.00260422 -0.016026 0.000423 -0.000267589 -0.00703629 -0.00433961 2650 
2013 1 -0.00273364 0.00281812 -0.0161251 0.000423 -6.21088e-05 -0.00297451 0.00266081 2650 
2301 1 -0.004222 0.00492468 -0.016305 4.2e-05 0 -0.011753 0 2650 
3121 1 -0.00318565 0.00506936 -0.0162029 0.000423 0.0292552 0.00121421 5.81941e-05 2650 
1388 1 -0.000968975 0.00521182 -0.0159412 0.000116 -0.039288 0.0021603 0.0169103 2650 
302 1 -0.000300293 0.00650316 -0.0162577 0.000116 0.0171051 0.0203877 0.0103663 2650 
3934 1 -0.001977 0.00791368 -0.016218 0.000116 0 -0.011753 0 2650 
1617 1 -0.00351899 0.00975555 -0.0164613 0.000116 0.0304875 0.00968505 -0.0492471 2650 
2924 1 -8.91696e-05 0.0111149 -0.0163258 0.000116 -0.059039 0.0353164 0.00422158 2650 
3573 1 -0.00386637 0.0308957 -0.0164075 0.000116 0.196545 -0.226716 -0.153339 2650 
1173 1 -0.000141509 0.033725 -0.0158366 0.000116 -0.136556 0.342033 -0.0293067 2650 
456 1 -0.00303037 0.0389135 -0.0160948 0.000423 -0.713021 -0.0435711 0.131566 2650 
4245 1 -0.00258092 0.0412207 -0.0163606 0.000116 -0.131082 0.152483 0.00432583 2650 
1357 1 -0.00269059 0.0506806 -0.0162234 0.000423 0.0681058 0.285169 -0.0155587 2650 
623 1 -0.00677961 0.000501382 -0.0152095 0.000116 0.0135085 -0.00577665 0.0160157 2650 
1991 1 -0.00522622 0.000522283 -0.0152321 0.000656 -0.0197706 -0.00214867 0.00868857 2650 
3637 1 -0.00379066 0.00223768 -0.0152026 0.000423 -0.00927208 0.0142333 -0.0137243 2650 
3239 1 -0.00335896 0.00176313 -0.0157315 0.000116 -0.0332144 0.00168872 0.00188105 2650 
676 1 -0.00261318 0.00189654 -0.0157086 0.000423 -0.0153526 -0.000110762 0.0217663 2650 
3043 1 -0.0017262 0.00245349 -0.0157776 0.000116 0.127084 0.0078871 0.090283 2650 
2399 1 -0.002418 0.00336568 -0.015541 0.000116 0 -0.011753 0 2650 
2283 1 -0.00218117 0.0038497 -0.0155892 0.000116 -0.0318858 -0.01081 -0.0228231 2650 
2313 1 -0.00485779 0.00569269 -0.0151492 0.000656 0.00856952 0.0288131 0.00982472 2650 
2438 1 -0.00563893 0.00667143 -0.0153685 0.000423 0.0095107 -0.00232096 0.00866566 2650 
978 1 -0.00494657 0.00683158 -0.0157082 0.000116 0.015313 -0.00383775 -0.0151954 2650 
1219 1 -0.000646684 0.00708166 -0.0157363 0.000656 0.0133734 0.0239605 0.00857101 2650 
963 1 -0.00570055 0.00733425 -0.0151476 0.000116 -0.029376 -0.065298 -0.0412241 2650 
1620 1 -0.0030985 0.00808714 -0.0156712 0.000116 0.0529387 0.0514306 -0.00503745 2650 
2969 1 -0.00142663 0.00817718 -0.015091 0.000656 -0.00781599 0.0183331 -4.51083e-05 2650 
1483 1 -0.000318923 0.00851752 -0.0153125 0.000423 -0.0010087 0.0213686 -0.00667363 2650 
3830 1 -0.006879 0.00946568 -0.015411 4.2e-05 0 -0.011753 0 2650 
86 1 -0.002064 0.00916968 -0.015055 0.000116 0 -0.011753 0 2650 
3177 1 -0.001068 0.00896968 -0.015412 4.2e-05 0 -0.011753 0 2650 
1228 1 -0.00143556 0.00925662 -0.0150124 0.000423 -0.0026547 0.0243513 0.000515369 2650 
371 1 -0.000457946 0.00998094 -0.0152712 0.000423 0.000724313 -0.00601752 -0.0061741 2650 
938 1 -0.000869 0.0103757 -0.015416 0.000116 0 -0.011753 0 2650 
568 1 -0.00265713 0.0167131 -0.0152726 0.000423 0.0646767 0.0324089 0.0265592 2650 
142 1 -0.00430574 0.0233576 -0.0152707 0.000423 -0.0600809 0.0373384 0.0570253 2650 
913 1 -0.00102533 0.0244918 -0.0150558 0.000423 -0.0131935 0.0940792 0.0439723 2650 
3349 1 -0.0673175 -0.00824402 -0.0146107 0.000116 -0.73218 -0.742885 3.40487 2650 
545 1 -0.00233089 -0.00164589 -0.0146915 4.2e-05 -0.000252069 0.0758595 -0.196498 2650 
2827 1 -0.00508228 -0.00118899 -0.0142533 0.000116 -0.0201753 -0.0226203 0.0017234 2650 
2817 1 -0.00180914 -0.00135124 -0.014417 0.000116 0.0100645 -0.056664 0.00630574 2650 
2823 1 -0.067295 -0.000116024 -0.0147095 0.000116 -0.825136 0.00213111 3.67486 2650 
1053 1 -0.007469 -0.00047632 -0.014946 0.000116 0 -0.011753 0 2650 
2332 1 -0.00430583 0.000141964 -0.0142652 0.000423 -0.0114447 -0.00779769 0.00753018 2650 
222 1 -0.00219347 7.59491e-05 -0.0147658 0.000656 -0.0189906 -0.0240038 0.0410277 2650 
2922 1 -0.00657804 0.00153635 -0.0146879 0.000116 -0.0108987 -0.0113206 0.0393947 2650 
220 1 -0.00363134 0.00259319 -0.0148369 4.2e-05 0.00197382 0.00663681 0.00671825 2650 
1171 1 -0.00868993 0.00420042 -0.0143141 0.000116 -0.0146011 -0.0168948 -0.0399555 2650 
3365 1 -0.002315 0.00579168 -0.014552 0.000116 0 -0.011753 0 2650 
3950 1 -0.00713889 0.00647021 -0.0145211 0.000656 0.000269197 -0.0034931 0.0278554 2650 
1618 1 -0.00839439 0.00763502 -0.0143641 0.000116 -0.0222988 0.059375 0.0201275 2650 
581 1 -0.00560421 0.00867473 -0.0143394 0.000423 -0.000593495 -0.0101803 -0.00423903 2650 
1827 1 -0.0065777 0.00944701 -0.0142204 0.000116 -0.0386186 0.00754243 -0.0442276 2650 
233 1 -0.00477876 0.00980288 -0.0145815 0.000423 0.000342891 -0.00976437 -0.0328705 2650 
3669 1 -0.00025956 0.0106618 -0.014655 0.000423 0.00220454 -0.00743356 -0.00383523 2650 
3644 1 -0.00092728 0.012397 -0.0148552 0.000423 -0.00432743 0.00711996 -0.0325914 2650 
478 1 -0.00746973 0.0149791 -0.0142449 0.000423 -0.0255767 0.012458 -0.051203 2650 
4087 1 -0.0671046 -0.0202271 -0.0141416 0.000423 -1.27899 -0.0351206 6.03008 2650 
1468 1 -0.00452959 -0.00239133 -0.0137069 0.000423 -0.0197001 -0.0470204 -0.0326717 2650 
1022 1 -0.0028211 -0.00213419 -0.0139594 0.000423 -0.0361806 0.0454744 -0.169588 2650 
509 1 -0.0073611 -0.000371424 -0.014179 0.000116 -0.00521486 0.00944493 -0.0325939 2650 
3733 1 -0.0064975 0.00112464 -0.0137464 0.000656 -0.0232119 0.0173762 0.0152854 2650 
1032 1 -0.00784319 0.0039077 -0.0138073 0.000423 -0.0173367 -0.00904293 -0.0556269 2650 
3587 1 -0.00605394 0.0039242 -0.0141009 0.000116 -0.0152422 -0.0151231 -0.00566973 2650 
234 1 -0.00104106 0.00378909 -0.0136042 0.000423 0.0351287 -0.0167305 0.0264562 2650 
2512 1 -0.00952845 0.0043466 -0.0136705 0.000116 0.018779 -0.0192413 0.00230208 2650 
4165 1 -0.00517215 0.00408066 -0.013741 0.000656 -6.3943e-05 -0.032131 0.00827285 2650 
2918 1 -0.00786453 0.00493282 -0.0137949 0.000116 -0.0132236 0.0205789 -0.0380223 2650 
1288 1 -0.002467 0.00709468 -0.014044 0.000116 0 -0.011753 0 2650 
4227 1 -0.000351281 0.00698165 -0.0138955 0.000116 -0.00921828 -0.0161692 0.0154311 2650 
2322 1 -0.00830871 0.00723555 -0.0136 0.000656 -0.0108707 -0.010103 0.00337555 2650 
3515 1 -0.0071633 0.0077739 -0.0141279 0.000656 -0.0103794 -0.0121819 0.00307219 2650 
508 1 -0.00955893 0.00830602 -0.0135214 0.000116 -0.0609474 0.0130298 0.0475554 2650 
4190 1 -0.00833522 0.00856591 -0.0141972 0.000423 -0.009489 7.8582e-05 0.00632979 2650 
2222 1 -0.000438693 0.00802187 -0.0141687 0.000423 -0.00549102 -0.00568171 -0.00117535 2650 
4257 1 -0.0082348 0.010003 -0.0140739 0.000116 0.0101268 -0.0416798 0.0036163 2650 
1476 1 -0.006941 0.00989468 -0.013435 0.000423 0 -0.011753 0 2650 
1986 1 -0.00292697 0.00981095 -0.0137992 0.000656 0.00762539 0.0149956 0.0116892 2650 
1409 1 -0.00044 0.0108747 -0.013868 0.000116 0 -0.011753 0 2650 
3007 1 -0.00130209 0.0114052 -0.0139339 0.000423 -0.0135196 -0.00505473 -0.0280609 2650 
3216 1 -0.00461059 0.026092 -0.0136126 0.000423 -0.00544148 0.107266 0.0543995 2650 
2467 1 -0.00116012 0.0308513 -0.0134574 0.000423 0.0301791 0.103437 0.0421276 2650 
3153 1 -0.00159476 -0.00274341 -0.0132506 0.000116 0.0575311 -0.0297429 -0.0490481 2650 
2172 1 -0.00794052 -0.00164227 -0.0130011 0.000116 0.0554355 0.00150652 -0.0523356 2650 
3551 1 -0.00648304 0.000263075 -0.0130446 0.000423 -0.015336 0.00523015 0.00637389 2650 
541 1 -0.00638975 0.000761994 -0.0126439 4.2e-05 -0.0143735 0.00954058 0.00936495 2650 
4126 1 -0.00478877 0.000138751 -0.0132608 0.000116 -0.0261531 0.0084042 0.00402279 2650 
2525 1 -0.004063 0.00132168 -0.013231 4.2e-05 0 -0.011753 0 2650 
2619 1 -0.005851 0.00213768 -0.012854 0.000116 0 -0.011753 0 2650 
3880 1 -0.010277 0.00305368 -0.012913 0.000423 0 -0.011753 0 2650 
2609 1 -0.00886 0.00286168 -0.013248 0.000116 0 -0.011753 0 2650 
3917 1 -0.003984 0.00362268 -0.012703 0.000116 0 -0.011753 0 2650 
2059 1 -0.003583 0.00383168 -0.012756 0.000116 0 -0.011753 0 2650 
3322 1 -0.00347768 0.0045862 -0.0128511 0.000423 0.00110678 0.0140263 0.0123959 2650 
2596 1 -0.00958767 0.00496041 -0.0127213 0.000116 -0.0442582 -0.0431064 0.0384975 2650 
2912 1 -0.00562464 0.00478051 -0.0132432 0.000116 0.00196064 0.0151142 0.00117299 2650 
4078 1 -0.00916688 0.00622502 -0.0127044 0.000423 -0.0196946 -0.00953845 0.00130892 2650 
450 1 -0.00638017 0.00560692 -0.0131937 0.000656 0.0112424 0.0469319 0.00733295 2650 
104 1 -0.0029959 0.00591736 -0.0131451 4.2e-05 -0.00674979 0.0150481 0.0116551 2650 
1427 1 -0.002948 0.00616268 -0.013376 4.2e-05 0 -0.011753 0 2650 
3446 1 -0.00244819 0.00572791 -0.0126584 0.000423 0.014297 -0.016402 -0.00312272 2650 
2913 1 -0.00774825 0.00675878 -0.0132783 0.000116 -0.028239 -0.0119827 -0.0130286 2650 
4296 1 -0.00368739 0.00666446 -0.0132741 0.000423 -0.0431702 0.0421068 0.0473826 2650 
1237 1 -0.0100212 0.00787229 -0.0131438 0.000423 0.0147702 0.0203613 -0.00922036 2650 
3259 1 -0.00876348 0.00753275 -0.0129954 0.000116 -0.0089878 -0.00810535 0.00538998 2650 
1584 1 -0.00151252 0.00764038 -0.0128639 0.000423 -0.00963006 0.0395817 0.04039 2650 
1795 1 -0.00873051 0.00815884 -0.0129847 0.000423 0.00165908 -0.0118589 -0.000959055 2650 
1250 1 -0.00791944 0.0086733 -0.0131271 0.000423 -0.0109693 -0.0170514 -0.0143142 2650 
1769 1 -0.00648039 0.00863903 -0.0133498 0.000656 -0.0148717 0.000652235 -0.0101128 2650 
2483 1 -0.00905268 0.00925985 -0.0130037 0.000116 0.00258646 -0.0218162 0.0129531 2650 
205 1 -0.000744 0.00887868 -0.01334 0.000116 0 -0.011753 0 2650 
289 1 -0.00156194 0.00974662 -0.0131436 0.000116 -0.0188061 -0.000940224 -0.0594549 2650 
1775 1 -0.00822851 0.0116354 -0.013046 0.000423 -7.29146e-05 -0.011186 -0.000346901 2650 
949 1 -0.00662043 0.0111644 -0.0127912 0.000116 -0.0176518 0.0277962 -0.00593252 2650 
3632 1 -0.00969957 0.0127959 -0.0133927 0.000423 -0.0216519 0.000467483 0.0139725 2650 
959 1 -0.00804024 0.0131277 -0.013286 0.000116 -0.0723779 0.0623805 -0.0339909 2650 
992 1 -0.0672308 -0.024652 -0.0122963 0.000656 -1.13793 -0.210387 6.26187 2650 
1072 1 -0.0246495 -0.00432918 -0.0120953 0.000116 -3.8292 -0.112742 -1.87895 2650 
330 1 -0.00816566 -0.00312406 -0.0123259 4.2e-05 -0.0696064 -0.0147686 0.0345761 2650 
4097 1 -0.0088738 -0.00222323 -0.0123176 0.000423 -0.0116536 0.00229875 0.0371095 2650 
2468 1 -0.00368962 -0.00193943 -0.012129 0.000423 -0.0504222 0.0211365 0.000191011 2650 
1763 1 -0.001143 -0.00199232 -0.012442 0.000656 0 -0.011753 0 2650 
3191 1 -0.00728458 -0.000286033 -0.0125511 0.000656 -0.0197381 0.00193499 -0.0014393 2650 
1422 1 -0.003881 -0.00014632 -0.012349 4.2e-05 0 -0.011753 0 2650 
1799 1 -0.0032301 0.000661134 -0.0120565 0.000423 7.10678e-05 -0.0118308 4.63239e-05 2650 
3956 1 -0.0090437 0.00155092 -0.0123109 0.000656 -0.000640959 -0.0104529 -0.000368355 2650 
3201 1 -0.00632324 0.00152371 -0.0122864 0.000423 -0.00608722 0.0216696 0.0089772 2650 
3389 1 -0.010415 0.00211968 -0.012026 0.000116 0 -0.011753 0 2650 
3645 1 -0.00600688 0.00329566 -0.0124675 0.000423 -0.0357151 -0.0039173 0.0164321 2650 
1192 1 -0.00519931 0.00370592 -0.0120683 0.000116 -0.0160738 0.0171838 -0.0228619 2650 
411 1 -0.010516 0.0044963 -0.0120909 0.000116 -0.00787832 -0.00657823 -8.20909e-05 2650 
3826 1 -0.009208 0.00401468 -0.012552 0.000116 0 -0.011753 0 2650 
708 1 -0.00280538 0.00446117 -0.0123487 0.000423 0.0112279 -0.00894022 0.00239788 2650 
3380 1 -0.00224151 0.00432813 -0.0120295 0.000116 -0.00133046 -0.0120531 0.0302183 2650 
2194 1 -0.00225131 0.00466386 -0.012455 4.2e-05 0.00491046 0.00111596 0.00228026 2650 
2957 1 -0.00150958 0.00455731 -0.0122624 4.2e-05 0.0205169 0.0248349 -0.000218849 2650 
3316 1 -0.008979 0.00476768 -0.012376 0.000423 0 -0.011753 0 2650 
1261 1 -0.00745015 0.00492875 -0.0124464 0.000423 -0.000148786 -0.00207045 -0.0014312 2650 
3362 1 -0.00266057 0.00508121 -0.0123308 0.000116 0.000350619 -0.00253681 -0.00404217 2650 
3030 1 -0.001189 0.00627768 -0.012596 0.000116 0 -0.011753 0 2650 
2219 1 -0.00292483 0.00672628 -0.0122632 0.000423 0.0430827 0.0512131 0.0198144 2650 
445 1 -0.00964329 0.0072946 -0.0122743 0.000656 -0.00157651 -0.00352117 -0.00927671 2650 
4318 1 -0.00860636 0.0076133 -0.0123058 0.000423 0.000634828 -0.00541564 0.00164809 2650 
1495 1 -0.004483 0.00774568 -0.012591 0.000116 0 -0.011753 0 2650 
3684 1 -0.00427067 0.00785513 -0.0125477 0.000116 0.00413104 -0.0230128 -0.00941473 2650 
2344 1 -0.000925969 0.00726292 -0.0122266 0.000423 0.00597873 -0.023338 -0.0226217 2650 
4179 1 -0.00721907 0.00866421 -0.0122474 0.000423 -0.00767678 -0.0221048 -0.00852388 2650 
3173 1 -0.004958 0.00840668 -0.012321 4.2e-05 0 -0.011753 0 2650 
1519 1 -0.00331375 0.00827437 -0.0119479 0.000116 -0.0494896 0.0341374 0.0501115 2650 
2630 1 -0.001036 0.00861468 -0.012074 4.2e-05 0 -0.011753 0 2650 
4002 1 -0.000443 0.00843868 -0.01223 0.000116 0 -0.011753 0 2650 
3847 1 -0.00962868 0.00876129 -0.0125032 0.000656 0.00191913 0.0130802 -0.00623859 2650 
2453 1 -0.00625041 0.00870645 -0.0122766 0.000423 0.00783944 0.0181262 -0.00771338 2650 
1423 1 -0.00145 0.0100947 -0.012526 4.2e-05 0 -0.011753 0 2650 
3106 1 -0.00779499 0.0121175 -0.0124278 0.000423 -0.042507 0.0242048 -0.0146805 2650 
1802 1 -0.00408212 0.0124546 -0.0121792 0.000423 0.00500259 -0.000364755 -0.0111755 2650 
2205 1 -0.00513673 0.0132779 -0.0120903 0.000656 -0.00206311 0.000112593 -0.00429342 2650 
1143 1 -0.000749213 0.0145749 -0.012584 0.000423 0.0070315 0.0110531 -0.00616027 2650 
3932 1 -0.00455467 0.0207109 -0.0122598 0.000116 0.03152 0.0411719 0.0597923 2650 
675 1 -0.00535967 0.0222713 -0.0119298 0.000423 -0.0171714 0.0807922 0.0289201 2650 
3505 1 -0.006952 -0.00298432 -0.011235 4.2e-05 0 -0.011753 0 2650 
2666 1 -0.00792873 -0.00159194 -0.0115429 0.000423 0.00506312 -0.0128769 -0.0752945 2650 
800 1 -0.00670121 -0.00211732 -0.0117846 0.000423 -0.00429202 -0.0325333 0.0439645 2650 
440 1 -0.00061 -0.00168232 -0.011485 4.2e-05 0 -0.011753 0 2650 
2645 1 -0.00600476 -0.00114397 -0.011155 0.000656 -0.0129362 0.00179202 0.059477 2650 
1535 1 -0.0680055 -4.20633e-05 -0.011422 4.2e-05 -0.676169 0.00244895 3.92771 2650 
2939 1 -0.00941352 -0.000298861 -0.0111662 0.000116 -0.00341769 -0.0275913 0.0148239 2650 
3200 1 -0.00870142 0.000109719 -0.0111338 0.000423 -0.0275514 -0.0115593 0.0194145 2650 
756 1 -0.00554581 0.0005658 -0.0116304 0.000116 0.041834 0.0697036 0.0154272 2650 
3894 1 -0.005583 0.00148868 -0.011098 0.000116 0 -0.011753 0 2650 
1063 1 -0.009531 0.00204368 -0.011683 0.000116 0 -0.011753 0 2650 
388 1 -0.00710105 0.00193185 -0.0117877 0.000116 0.0212466 0.0335067 0.0250458 2650 
2062 1 -0.00691172 0.00179585 -0.0113838 0.000116 -0.0517879 -0.0811336 0.00337392 2650 
3477 1 -0.00900719 0.00256302 -0.0117575 0.000116 0.0616358 -0.0139442 -0.0219299 2650 
1125 1 -0.00639614 0.00337832 -0.0113497 0.000423 -0.0443086 0.0114405 0.0272453 2650 
2294 1 -0.004894 0.00372468 -0.011565 0.000116 0 -0.011753 0 2650 
2474 1 -0.00263825 0.00382383 -0.0114086 0.000423 -0.00380852 -0.00865862 -0.00797376 2650 
2285 1 -0.0114807 0.00401854 -0.0118015 0.000116 0.0175306 0.0103543 0.003719 2650 
1822 1 -0.00878182 0.00461635 -0.0111328 0.000116 -0.0361035 -0.0195415 0.0016013 2650 
3787 1 -0.00644418 0.00434002 -0.011329 0.000116 -0.0024271 -0.00223267 -0.0195234 2650 
878 1 -0.00391752 0.00453329 -0.0112189 4.2e-05 -0.000281569 -0.00211859 -0.00050102 2650 
1215 1 -0.0117238 0.00548955 -0.0111547 0.000656 -0.000279333 -0.00226461 0.00683019 2650 
3221 1 -0.00831163 0.00516501 -0.0116085 0.000423 -0.0383607 -5.03589e-05 -0.0190963 2650 
1758 1 -0.00201 0.00503868 -0.01144 4.2e-05 0 -0.011753 0 2650 
4027 1 -0.003218 0.00616968 -0.011075 0.000116 0 -0.011753 0 2650 
2409 1 -0.002586 0.00610868 -0.011527 4.2e-05 0 -0.011753 0 2650 
763 1 -0.00547788 0.00655141 -0.0113312 4.2e-05 -0.0107376 -0.0192397 -0.014763 2650 
3456 1 -0.00361558 0.00685579 -0.0112946 0.000423 -0.000997028 -0.0111859 -0.00366568 2650 
3283 1 -0.000647813 0.00662252 -0.0116464 4.2e-05 0.0397515 0.0433617 -0.0233311 2650 
2338 1 -0.00933011 0.00710565 -0.0111849 0.000423 -0.0329479 -0.00278614 0.0142677 2650 
713 1 -0.0077873 0.00765912 -0.0112451 0.000423 -0.0119296 0.00314301 0.00578085 2650 
2547 1 -0.0118917 0.00858068 -0.0112273 0.000423 -0.0172305 -0.00928707 0.00629179 2650 
2798 1 -0.00809924 0.00854102 -0.011749 0.000423 0.0168646 0.022512 -0.0112906 2650 