ITEM: TIMESTEP
9718200
ITEM: NUMBER OF ATOMS
4345
ITEM: BOX BOUNDS ff ff ff
-0.15 0.15
-0.15 0.06
-0.15 0.15
ITEM: ATOMS id type x y z radius vx vy vz density 
406 1 -0.103654 -0.0190185 0.0482012 0.000116 -5.47373 0.138899 10.1827 2650 
1317 1 -0.0934768 -0.0406122 0.0568927 4.2e-05 -4.10074 0.0736945 11.5269 2650 
2487 1 -0.00183604 -0.0487625 -0.0688583 0.000116 -9.90314 -0.0524513 0.265957 2650 
3957 1 -0.00820706 -0.0522633 -0.0678532 0.000656 -7.75384 0.00671842 0.947732 2650 
3154 1 -0.0169781 -0.0574293 -0.0667587 0.000116 -5.46252 0.705019 1.3782 2650 
3753 1 -0.053209 -0.054473 -0.0432095 0.000423 -4.40442 0.0700547 5.42544 2650 
3038 1 -0.0592624 -0.0585976 -0.0351132 0.000116 -2.99994 -0.000572025 5.06743 2650 
8 1 -0.064956 -0.0487744 -0.0211698 0.000656 -3.0398 -0.0119748 9.3492 2650 
1314 1 -0.065903 -0.0582811 -0.0202949 4.2e-05 -2.34435 1.06815 7.71819 2650 
3331 1 -0.0679686 -0.0536056 -0.00912908 0.000423 -0.833205 0.0820553 6.41659 2650 
1550 1 -0.0683182 -0.046505 0.00197069 0.000656 0.197354 -0.141413 7.33814 2650 
3840 1 -0.0667939 -0.0473682 0.0144857 0.000656 1.70242 -0.0641172 7.97821 2650 
4009 1 -0.0651535 -0.0490726 0.0223612 0.000116 1.9631 -0.368553 5.69963 2650 
312 1 -0.0634233 -0.0494988 0.0268788 0.000116 2.53093 0.816551 6.03591 2650 
107 1 -0.00569696 -0.00607332 -0.0687225 4.2e-05 -5.84754 -0.501965 0.481868 2650 
897 1 -0.00818058 -0.042516 -0.0680881 0.000423 -7.31193 0.00015811 0.867554 2650 
902 1 -0.00125841 -0.0342631 -0.0685654 0.000423 -7.12481 -0.232011 0.119657 2650 
2966 1 -0.00106133 -0.0328422 -0.0683355 0.000656 -7.22064 -0.118409 0.0780115 2650 
3426 1 -0.00406691 -0.0292777 -0.0684576 0.000423 -6.51459 -0.110666 0.377519 2650 
4142 1 -0.00897398 -0.0271259 -0.0682973 0.000116 -6.14094 0.240674 0.792951 2650 
1601 1 -0.00845972 -0.0256353 -0.0683629 0.000116 -5.34993 -0.742741 0.661742 2650 
507 1 -0.00985902 -0.0238268 -0.0681743 0.000116 -4.63369 0.300344 0.66369 2650 
940 1 -0.00750634 -0.0227179 -0.0684738 0.000116 -6.16733 0.123694 0.708783 2650 
1278 1 -0.0100896 -0.0215365 -0.0681409 0.000116 -7.64793 -0.330904 1.12932 2650 
3647 1 -0.00458217 -0.0116598 -0.0684253 0.000423 -5.89573 -0.145898 0.403755 2650 
4149 1 -0.0105618 -0.0074748 -0.0680694 0.000116 -4.7466 -0.399211 0.733278 2650 
4263 1 -0.0115686 -0.00427143 -0.0679802 4.2e-05 -4.58767 -0.0599634 0.785101 2650 
4153 1 -0.0104259 -0.00335301 -0.0680901 0.000116 -6.25907 -0.417079 0.959432 2650 
103 1 -0.0136232 -0.0200202 -0.0675986 4.2e-05 -3.54116 -0.126503 0.701194 2650 
3483 1 -0.0120579 -0.00439265 -0.0678205 0.000116 -3.48432 0.296555 0.620208 2650 
1832 1 -0.012274 -0.000116002 -0.0677815 0.000116 -7.10336 0.000290935 1.2861 2650 
2954 1 -0.0120431 -0.000116015 -0.0678231 0.000116 -7.10598 -0.000684972 1.26521 2650 
38 1 -0.0150695 -0.0354816 -0.0669013 0.000423 -5.56042 -0.165827 1.26304 2650 
1175 1 -0.0175355 -0.0317995 -0.0665789 0.000116 -5.27559 0.0868053 1.29342 2650 
3135 1 -0.016703 -0.0260722 -0.0668225 0.000116 -5.33672 -0.0779008 1.27897 2650 
1052 1 -0.017986 -0.00513385 -0.0664747 0.000116 -5.24803 -0.213215 1.38274 2650 
3232 1 -0.0147133 -0.0046313 -0.0669814 0.000423 -5.9124 -0.348999 1.30707 2650 
4020 1 -0.0182082 -0.00262087 -0.0664319 0.000116 -5.19597 -0.0471981 1.58459 2650 
2788 1 -0.0158863 -0.00212966 -0.0667111 0.000423 -6.36945 0.160671 1.53226 2650 
2563 1 -0.0160041 -0.000423332 -0.0666836 0.000423 -7.14065 -0.00292339 1.73952 2650 
2023 1 -0.0190607 -0.0379761 -0.0658671 0.000423 -6.97242 -0.0300156 2.02365 2650 
1768 1 -0.0173761 -0.0226091 -0.066092 0.000656 -6.66713 -0.0709211 1.8348 2650 
871 1 -0.0213251 -0.0187498 -0.0655758 4.2e-05 -3.86905 -0.702162 1.26406 2650 
3242 1 -0.0191673 -0.0157656 -0.0661422 0.000116 -6.67083 -0.118901 1.95539 2650 
1071 1 -0.0233376 -0.0263232 -0.0648088 0.000116 -6.34805 0.0940461 2.29245 2650 
2259 1 -0.0229684 -0.00952952 -0.0649373 0.000116 -4.75476 -0.333495 1.72199 2650 
3043 1 -0.0214539 -0.00543365 -0.0654498 0.000116 -4.15422 0.597055 1.38786 2650 
1081 1 -0.0243396 -0.0303329 -0.0644413 0.000116 -6.30234 0.195011 2.34233 2650 
3229 1 -0.0236695 -0.0252826 -0.0643623 0.000423 -7.12259 -0.226981 2.68424 2650 
358 1 -0.0227831 -0.0208433 -0.0646828 0.000423 -6.34419 0.164977 2.2264 2650 
400 1 -0.0247566 -0.0173984 -0.0642812 0.000116 -7.92517 0.439029 3.05519 2650 
2413 1 -0.0238262 -0.0165374 -0.0647107 4.2e-05 -3.66229 0.0864326 1.31128 2650 
2001 1 -0.0234081 -0.00938543 -0.0644588 0.000423 -4.7019 -0.244688 1.67202 2650 
3508 1 -0.0256589 -0.00633279 -0.0640065 4.2e-05 -3.0298 -0.115863 1.22254 2650 
1083 1 -0.0246329 -0.00289136 -0.0643285 0.000116 -5.0272 0.661699 1.91604 2650 
3693 1 -0.026303 -0.00745887 -0.0636648 0.000116 -2.96314 -0.202598 1.28473 2650 
612 1 -0.0266239 -0.00690121 -0.0635313 0.000116 -4.75862 0.231133 1.97873 2650 
433 1 -0.0275393 -0.00467746 -0.0632199 4.2e-05 -4.63632 -0.300347 2.01657 2650 
2612 1 -0.0281528 -0.0300763 -0.0628689 0.000116 -5.73622 0.0619966 2.56921 2650 
3701 1 -0.029135 -0.0285868 -0.0624198 0.000116 -6.11601 -0.555992 2.86185 2650 
3015 1 -0.0284747 -0.0237097 -0.062387 0.000423 -6.15172 -0.0421909 2.80527 2650 
1012 1 -0.0281286 -0.0110078 -0.0625448 0.000423 -5.39649 -0.116919 2.40848 2650 
3525 1 -0.029456 -0.00588084 -0.0619296 0.000423 -4.67593 -0.141923 2.216 2650 
2066 1 -0.0293426 -0.00322505 -0.0623219 0.000116 -5.05022 -0.420577 2.36521 2650 
2167 1 -0.0309171 -0.0282248 -0.0615564 0.000116 -5.85319 0.748457 2.94391 2650 
2165 1 -0.0322079 -0.0273841 -0.0608908 0.000116 -5.93395 0.723875 3.15003 2650 
877 1 -0.0325218 -0.0262739 -0.0608074 4.2e-05 -5.8703 0.610304 3.13469 2650 
2557 1 -0.0331887 -0.0349492 -0.0600124 0.000423 -5.76167 -0.178053 3.17824 2650 
2460 1 -0.0321191 -0.0145158 -0.0605917 0.000423 -5.34472 -0.125035 2.79732 2650 
397 1 -0.0335683 -0.0105339 -0.0601516 0.000116 -5.71759 -1.37512 3.1828 2650 
4362 1 -0.0336432 -0.00463296 -0.0601092 0.000116 -2.87395 -0.0822098 1.58627 2650 
3073 1 -0.0351864 -0.0237982 -0.0593049 4.2e-05 -6.3034 -0.334527 3.73821 2650 
322 1 -0.0353058 -0.00304013 -0.0592342 4.2e-05 -6.1507 -0.432666 3.68137 2650 
893 1 -0.035292 -0.0377544 -0.0587993 0.000423 -6.10982 0.0750054 3.70534 2650 
1905 1 -0.0357163 -0.0362226 -0.0585429 0.000423 -5.74701 -0.137726 3.50758 2650 
3724 1 -0.0355273 -0.0239257 -0.0591015 4.2e-05 -6.87383 -0.235191 4.12487 2650 
3918 1 -0.037713 -0.0196698 -0.0576417 0.000116 -5.07747 0.03842 3.30583 2650 
35 1 -0.0389135 -0.0406943 -0.0564682 0.000423 -5.9783 -0.0191587 4.12555 2650 
3472 1 -0.0395577 -0.00529061 -0.0563713 0.000116 -4.21159 -0.0810922 2.89983 2650 
3904 1 -0.0410053 -0.0161157 -0.055341 0.000116 -4.9505 -0.358371 3.68203 2650 
2269 1 -0.040527 -0.00721838 -0.0556607 0.000116 -3.90198 -0.169955 2.92262 2650 
3679 1 -0.0424937 -0.0129289 -0.0542073 0.000116 -4.58901 -0.47076 3.58149 2650 
1404 1 -0.0425711 -0.00867543 -0.0541461 0.000116 -2.95919 -0.254606 2.24151 2650 
1646 1 -0.042497 -0.00323922 -0.0543038 4.2e-05 -4.45055 0.262526 3.49736 2650 
4007 1 -0.0447433 -0.0106043 -0.0523691 0.000116 -2.51715 -0.327005 2.1169 2650 
1528 1 -0.0451547 -0.0279272 -0.0520203 0.000116 -4.50311 -1.54625 3.90487 2650 
1994 1 -0.0449289 -0.0195941 -0.05181 0.000423 -5.05826 0.0089798 4.37423 2650 
2911 1 -0.045599 -0.0260239 -0.0512222 0.000423 -5.20041 -0.275234 4.63006 2650 
2620 1 -0.0462476 -0.0129819 -0.0510499 0.000116 -3.92874 -0.441917 3.54913 2650 
3566 1 -0.046315 -0.0119576 -0.0509902 0.000116 -3.8174 -0.659938 3.43035 2650 
1454 1 -0.0458604 -0.0108476 -0.0509858 0.000423 -3.98411 0.00202871 3.59125 2650 
2546 1 -0.04711 -0.0291224 -0.0498362 0.000423 -5.1173 0.12647 4.85405 2650 
1914 1 -0.0463925 -0.0251887 -0.050504 0.000423 -5.16454 -0.0150431 4.75794 2650 
295 1 -0.0475128 -0.0145639 -0.0498755 0.000116 -3.11787 -0.326936 2.97494 2650 
3782 1 -0.0466552 -0.0130553 -0.0502615 0.000423 -4.09283 -0.0908707 3.78128 2650 
2130 1 -0.0470353 -0.00940303 -0.0499071 0.000423 -2.3374 -0.215409 2.19379 2650 
4150 1 -0.0476936 -0.0218137 -0.0497018 0.000116 -3.49037 -0.294242 3.3574 2650 
286 1 -0.0481311 -0.0162601 -0.049279 0.000116 -4.09131 -0.55653 3.97765 2650 
1602 1 -0.0484474 -0.0112082 -0.0489688 0.000116 -4.00908 -0.0361438 3.94751 2650 
453 1 -0.0494083 -0.0205629 -0.0475595 0.000423 -3.72053 -0.699935 3.83047 2650 
1336 1 -0.050222 -0.017208 -0.0466984 0.000423 -4.19905 0.413048 4.51099 2650 
2132 1 -0.0506319 -0.0305924 -0.0462482 0.000423 -5.44853 0.449654 5.99286 2650 
1616 1 -0.0488631 -0.0214343 -0.0460781 0.000116 -4.57843 -0.584742 3.91002 2650 
2098 1 -0.0517328 -0.0221507 -0.0446622 0.000656 -5.01798 -0.0355718 5.80841 2650 
4028 1 -0.0532823 -0.0302706 -0.0436429 0.000116 -4.67293 -0.127982 5.68077 2650 
4087 1 -0.0527415 -0.0242132 -0.0438191 0.000423 -4.61118 -0.104417 5.5565 2650 
2947 1 -0.0529627 -0.00130443 -0.0440448 0.000116 -4.07182 -0.408912 4.89823 2650 
4360 1 -0.053441 -0.000116006 -0.0434634 0.000116 -4.5545 0.00154274 5.60603 2650 
2823 1 -0.0532942 -0.000116947 -0.0436431 0.000116 -4.57569 0.0043315 5.58919 2650 
3583 1 -0.0538593 -0.0230812 -0.0429381 0.000116 -4.44955 -1.11109 5.50158 2650 
1461 1 -0.0534707 -0.021574 -0.0429392 0.000423 -4.55439 -0.101884 5.64527 2650 
2905 1 -0.0535869 -0.018014 -0.0427946 0.000423 -4.51462 -0.214279 5.64126 2650 
3974 1 -0.0535532 -0.0160116 -0.0428368 0.000423 -4.33696 -0.10775 5.47856 2650 
1207 1 -0.0539479 -0.0120945 -0.0429511 4.2e-05 -5.24338 0.228009 6.57744 2650 
1535 1 -0.0536505 -6.56636e-05 -0.0433219 4.2e-05 -4.70696 -0.0273328 5.82868 2650 
2376 1 -0.0535718 -0.000219076 -0.0433019 0.000116 -4.50499 -0.130013 5.56467 2650 
615 1 -0.0536067 -0.000652507 -0.0432589 0.000116 -4.38189 -0.129661 5.41678 2650 
2939 1 -0.0525027 -0.00447207 -0.0419252 0.000116 -2.9404 -0.0812259 3.33905 2650 
427 1 -0.0547376 -0.0246 -0.0418108 0.000116 -4.1428 0.063765 5.49325 2650 
1968 1 -0.0549508 -0.0134679 -0.0415383 0.000116 -3.35663 0.842573 4.43934 2650 
843 1 -0.0548137 -0.0100001 -0.0417188 0.000116 -3.3508 0.524197 4.38971 2650 
977 1 -0.0547605 -0.0022246 -0.0417882 0.000116 -3.30211 -0.0966209 4.31849 2650 
4097 1 -0.0550545 -0.0116757 -0.040889 0.000423 -1.89981 -0.19389 2.54232 2650 
4251 1 -0.0564038 -0.020405 -0.0395422 0.000116 -3.68291 0.100623 5.26064 2650 
4377 1 -0.0569166 -0.0388612 -0.0389317 4.2e-05 -3.75431 0.310425 5.48585 2650 
1387 1 -0.056578 -0.0182977 -0.0392924 0.000116 -3.00198 -0.582429 4.3118 2650 
138 1 -0.0563897 -0.0173375 -0.0390262 0.000423 -2.91758 -0.400028 4.26033 2650 
367 1 -0.0570384 -0.0225753 -0.0380733 0.000423 -4.09 0.0743542 6.10743 2650 
3168 1 -0.0573641 -0.0219207 -0.0381359 0.000116 -3.0044 -0.251744 4.55415 2650 
2042 1 -0.0574526 -0.0167413 -0.0380024 0.000116 -3.23586 0.81013 4.90293 2650 
2982 1 -0.057079 -0.0132114 -0.0380115 0.000423 -2.88175 -0.568002 4.32529 2650 
2690 1 -0.0583692 -0.0316327 -0.0360004 0.000423 -3.46145 -0.153285 5.62536 2650 
734 1 -0.0590178 -0.0224368 -0.0355231 0.000116 -2.89372 0.439037 4.80744 2650 
811 1 -0.0595409 -0.0237898 -0.0340269 0.000423 -3.40547 0.166323 6.02 2650 
3356 1 -0.0602679 -0.0206674 -0.0333591 0.000116 -2.47799 -0.29034 4.47817 2650 
1183 1 -0.0602324 -0.00582251 -0.033423 0.000116 -2.74253 -0.0569387 4.94461 2650 
1829 1 -0.0606604 -0.0107382 -0.0326407 0.000116 -1.6312 -0.314127 3.03851 2650 
2100 1 -0.060549 -0.0144081 -0.0317007 0.000656 -2.3966 -0.1902 4.54346 2650 
1161 1 -0.0609306 -0.00242411 -0.0321312 0.000116 -1.62324 0.0588083 3.04949 2650 
3479 1 -0.061941 -0.0186299 -0.030138 0.000116 -2.98716 -0.0241061 6.10427 2650 
3252 1 -0.0624779 -0.0265319 -0.0290086 0.000116 -2.98923 0.156966 6.42611 2650 
2607 1 -0.0626647 -0.00946148 -0.0285977 0.000116 -1.96386 -0.0505275 4.19343 2650 
2846 1 -0.0629625 -0.002849 -0.0281222 4.2e-05 -2.1273 -0.331873 4.76694 2650 
2457 1 -0.0628938 -0.0280795 -0.0273284 0.000423 -2.95557 0.0315187 6.76742 2650 
3227 1 -0.0628368 -0.0206113 -0.0274689 0.000423 -3.16146 -0.00295275 7.18936 2650 
807 1 -0.0630737 -0.00257745 -0.0269175 0.000423 -2.37821 0.189437 5.51236 2650 
2314 1 -0.0631681 -0.0426993 -0.0260913 0.000656 -2.96062 0.136499 7.19762 2650 
2038 1 -0.0639834 -0.00250792 -0.0255149 0.000116 -2.01829 -0.219267 4.95172 2650 
2685 1 -0.0638379 -0.0267559 -0.0250248 0.000423 -2.5736 0.0777631 6.57754 2650 
2900 1 -0.0640071 -0.00943979 -0.0245889 0.000423 -2.17625 0.261813 5.60329 2650 
3613 1 -0.0645499 -0.0234081 -0.0242543 4.2e-05 -2.04254 -0.355007 5.27905 2650 
1946 1 -0.0645281 -0.0097457 -0.0240502 0.000116 -2.21582 -0.252076 5.95713 2650 
4048 1 -0.0645395 -0.00326769 -0.0242805 4.2e-05 -2.29669 1.16809 5.93615 2650 
3375 1 -0.0649046 -0.0325348 -0.0230162 0.000116 -1.94733 -0.584942 5.39989 2650 
4101 1 -0.064619 -0.0262472 -0.0229097 0.000423 -2.5096 0.361854 6.96762 2650 
935 1 -0.064574 -0.0221375 -0.0230775 0.000423 -2.433 -0.0081892 6.73108 2650 
2361 1 -0.0649486 -0.0243394 -0.0220038 0.000423 -2.30789 -0.106067 6.66655 2650 
3390 1 -0.0654026 -0.00644626 -0.0215344 0.000116 -1.83821 -0.234007 5.75278 2650 
689 1 -0.0652577 -0.0372701 -0.0210526 0.000423 -2.34394 -0.0240801 7.28679 2650 
1520 1 -0.0657527 -0.0368256 -0.0205187 0.000116 -2.19703 -0.127012 7.16976 2650 
2192 1 -0.0660301 -4.19997e-05 -0.0198799 4.2e-05 -0.992766 -0.00080725 3.32443 2650 
1135 1 -0.0657856 -0.0447551 -0.0193689 0.000423 -1.99951 -0.0638752 6.79786 2650 
2848 1 -0.0661468 -0.00769248 -0.0194865 4.2e-05 -2.13875 -0.0648329 7.31438 2650 
4106 1 -0.0661334 -0.0252198 -0.0181461 0.000423 -1.90148 -0.103833 6.91929 2650 
656 1 -0.0603177 -0.00428019 -0.0188515 4.2e-05 -9.25452 -0.11246 -2.89007 2650 
4036 1 -0.0665158 -0.0244074 -0.0179067 0.000116 -1.94546 0.0879448 7.19106 2650 
3878 1 -0.0663059 -0.0239614 -0.0175057 0.000423 -1.84162 -0.13143 6.95274 2650 
762 1 -0.0665738 -0.00183405 -0.0179754 4.2e-05 -2.03458 -0.371802 7.51109 2650 
336 1 -0.0661621 -0.0355739 -0.0171404 0.000656 -1.86948 -0.0823049 7.31355 2650 
3058 1 -0.0667695 -0.00396702 -0.0169362 0.000116 -0.817759 -0.0294225 3.14678 2650 
2172 1 -0.000189539 -0.00106998 -0.016712 0.000116 0.0682862 0.00746542 -0.00852403 2650 
606 1 -0.000183 0.00168402 -0.016592 0.000116 0 -0.011753 0 2650 
2520 1 -0.000313651 0.00488519 -0.0168349 4.2e-05 0.00318265 0.000380138 0.00682554 2650 
1794 1 -0.0666065 -0.0331691 -0.0163252 0.000423 -1.78656 0.147044 7.3155 2650 
2234 1 -0.0667368 -0.0186165 -0.0157865 0.000423 -1.42143 -0.23882 6.0038 2650 
2013 1 -0.00294832 0.00302572 -0.0159197 0.000423 -0.00154235 0.00221798 0.00156406 2650 
2301 1 -0.00430018 0.00362932 -0.0162093 4.2e-05 -0.00116259 -0.0070103 0.00459775 2650 
1679 1 -0.00411443 0.00440166 -0.015857 0.000423 -0.00453172 0.0157125 0.00260684 2650 
2283 1 -0.0035262 0.00417533 -0.0164058 0.000116 -0.00010552 0.00956354 0.000789399 2650 
4227 1 -0.000493431 0.0043251 -0.0161808 0.000116 0.00143204 -0.0228975 -0.0290312 2650 
1611 1 -0.00353434 0.00483662 -0.0159318 0.000116 0.0513704 -0.0152435 0.0155029 2650 
978 1 -0.00278906 0.0063801 -0.01637 0.000116 0.0180122 -0.00353228 -0.00159853 2650 
3934 1 -0.001977 0.00644602 -0.016218 0.000116 0 -0.011753 0 2650 
3177 1 -3.52765e-05 0.00861586 -0.0161619 4.2e-05 0.00917698 -0.00185525 -0.00666376 2650 
302 1 -9.37555e-06 0.00921019 -0.015862 0.000116 -0.0434127 0.0256721 -0.0191129 2650 
1483 1 -0.000450706 0.0100843 -0.016304 0.000423 -0.00134867 0.0112238 -0.0085204 2650 
3007 1 -0.00263774 0.0110376 -0.0159327 0.000423 -0.00754521 0.0118776 -0.00214285 2650 
371 1 -0.00044056 0.0113597 -0.016404 0.000423 0.00531915 0.0198137 0.0114896 2650 
188 1 -0.00256671 0.0126271 -0.0162963 0.000116 -0.0148612 0.0228045 0.00418427 2650 
2182 1 -0.00145268 0.0124064 -0.0160043 0.000116 -0.00770269 0.0448602 -0.0445042 2650 
2713 1 -0.000717875 0.0144564 -0.0161166 0.000116 0.00037122 0.035974 0.00535071 2650 
66 1 -0.00508628 0.0341515 -0.0159457 0.000116 -0.217432 -0.0137213 0.0406838 2650 
209 1 -0.067229 -0.0181633 -0.0150093 0.000116 -1.35942 0.00950314 6.07756 2650 
1763 1 -0.00413117 -0.00233526 -0.0154007 0.000656 -0.0890582 0.0217677 -0.0881811 2650 
30 1 -0.00170206 -0.00148287 -0.0157209 0.000423 -0.0139928 -0.0214008 0.00726417 2650 
3599 1 -0.00128875 -0.00145204 -0.0152685 0.000116 0.0260231 -0.00977207 -0.00117121 2650 
2399 1 -0.002418 0.00189802 -0.015541 0.000116 0 -0.011753 0 2650 
3637 1 -0.00514856 0.0037549 -0.0155559 0.000423 -0.00704251 0.0124689 0.006236 2650 
2344 1 -0.000115816 0.004714 -0.0152273 0.000423 0.0113166 5.02216e-06 -0.0390029 2650 
3365 1 -0.00217801 0.0048344 -0.0151164 0.000116 0.0120999 0.0333262 -0.0498495 2650 
2438 1 -0.00604644 0.00725809 -0.0151036 0.000423 -0.00468347 -0.000292455 -0.00123863 2650 
3830 1 -0.006879 0.00799802 -0.015411 4.2e-05 0 -0.011753 0 2650 
938 1 -0.00148154 0.00990953 -0.0157809 0.000116 -0.00119823 0.000558801 -0.00633771 2650 
2781 1 -0.0061237 0.0108746 -0.015285 0.000423 -0.00287998 0.011096 -0.0317373 2650 
2969 1 -0.0023793 0.0103975 -0.0150384 0.000656 -0.00667616 0.014076 0.00443217 2650 
70 1 -0.00480713 0.0119487 -0.0157893 0.000116 0.0560864 0.0328811 0.00597028 2650 
2793 1 -0.00107436 0.0121532 -0.0152225 0.000423 0.000157206 0.0547174 -0.00166293 2650 
3644 1 -0.00116934 0.0130633 -0.0152546 0.000423 -0.000399523 0.00418678 0.0157329 2650 
2924 1 -0.00713331 0.0154453 -0.0150626 0.000116 -0.0500795 0.0331408 0.0243033 2650 
2466 1 -0.00536969 0.0214062 -0.0152422 0.000423 0.0618857 0.0331724 -0.00268308 2650 
2585 1 -0.000955114 0.0245127 -0.0152651 0.000116 -0.0221426 0.0759057 0.0070692 2650 
4234 1 -0.00501083 0.031955 -0.0157872 0.000116 0.00512064 0.0508026 0.0366661 2650 
2863 1 -0.00287684 0.0523446 -0.0152887 0.000656 0.0828395 0.112062 0.0238951 2650 
1587 1 -0.066976 -0.0197812 -0.0147386 0.000423 -1.31484 -0.300372 6.04239 2650 
1683 1 -0.0669323 -0.01333 -0.0149327 0.000423 -1.31425 0.281055 5.88063 2650 
715 1 -0.0670222 -0.00882943 -0.0145256 0.000423 -0.813255 -0.143286 3.75069 2650 
4244 1 -0.0015694 -0.00277777 -0.0146722 0.000116 -0.0436806 -0.00994679 0.0125723 2650 
1053 1 -0.007469 -0.00194398 -0.014946 0.000116 0 -0.011753 0 2650 
736 1 -0.0073864 -0.00107138 -0.0147551 0.000116 -0.0307431 -0.0170391 0.0144389 2650 
3576 1 -0.00287981 -0.00143459 -0.0142157 0.000116 0.0561059 0.00120064 -0.0311085 2650 
509 1 -0.00764613 -0.000510741 -0.0146456 0.000116 -0.00480979 -0.0076817 0.0108723 2650 
857 1 -0.00498325 0.00261085 -0.0148693 0.000116 -0.0623021 0.0193526 0.00200378 2650 
2474 1 -0.000876687 0.00248825 -0.01466 0.000423 0.0307748 -0.0136667 -0.043701 2650 
889 1 -0.00219512 0.00405781 -0.0146462 0.000656 0.0239239 0.0130736 -0.0545072 2650 
4300 1 -0.000247823 0.0040431 -0.0145153 0.000423 0.0101839 0.00179298 -0.0226263 2650 
1192 1 -0.00720653 0.00585176 -0.0149231 0.000116 -0.0160738 0.0171838 -0.0228619 2650 
581 1 -0.00561733 0.00806268 -0.0145218 0.000423 0.000441693 0.00100922 0.00165067 2650 
233 1 -0.00377436 0.00897018 -0.0148058 0.000423 0.00841442 -0.00267664 0.00454736 2650 
2726 1 -0.000253881 0.00873006 -0.0145326 0.000116 -0.00741369 0.00988612 -0.041436 2650 
289 1 -0.0032207 0.00973961 -0.0145642 0.000116 -0.00850769 0.000708308 0.0302001 2650 
86 1 -0.00423301 0.0103985 -0.0149666 0.000116 -0.0196067 0.0126222 0.000798653 2650 
3500 1 -0.00349065 0.0107489 -0.0146782 4.2e-05 -0.0484689 0.00233787 0.0298831 2650 
3150 1 -0.00148023 0.0104516 -0.014814 0.000116 -0.0182263 -0.0087302 -0.0269448 2650 
1228 1 -0.00190897 0.0123956 -0.0149043 0.000423 -0.0165199 0.0339339 0.00467854 2650 
1839 1 -0.00424845 0.0154527 -0.0144131 0.000116 -0.0676852 0.0211351 0.0188737 2650 
93 1 -0.00821169 0.0183133 -0.0147331 0.000116 0.0683401 0.0488097 -0.0337926 2650 
1717 1 -0.00342299 0.0280154 -0.0146571 0.000116 -0.014717 0.0706098 -0.0348682 2650 
1195 1 -0.00532395 0.0318664 -0.0143963 0.000116 0.0557766 0.0782116 -0.0138054 2650 
3588 1 -0.00628023 0.0423044 -0.0145413 0.000116 0.181107 0.0152304 0.0217687 2650 
4010 1 -0.0074567 0.0426843 -0.0147452 0.000116 0.0373387 0.0604042 0.0259593 2650 
2060 1 -0.0675488 -0.0235442 -0.0134961 0.000116 -1.25013 0.219888 6.24702 2650 
786 1 -0.0671757 -0.0210622 -0.0137956 0.000423 -1.36364 0.14385 6.73187 2650 
2666 1 -0.00408958 -0.00287307 -0.0140494 0.000423 0.0429038 -0.00888448 0.00629481 2650 
1991 1 -0.00766176 0.000262342 -0.0141474 0.000656 -0.019376 -0.00203791 0.00870126 2650 
161 1 -0.000243636 3.78331e-05 -0.013518 0.000423 0.0169113 0.00636159 -0.0425513 2650 
2609 1 -0.00850189 0.00115988 -0.0135221 0.000116 0.0165148 -0.0225508 -0.0126409 2650 
2922 1 -0.00774725 0.0013524 -0.0135848 0.000116 -0.00925852 -0.000802711 0.00675368 2650 
3239 1 -0.00658895 0.00102434 -0.0141629 0.000116 -0.0248133 -0.00752354 0.0120924 2650 
2473 1 -0.0088819 0.00178976 -0.0134961 0.000423 0.0164368 -0.00639214 -0.0235738 2650 
2913 1 -0.00940505 0.00394377 -0.013798 0.000116 -0.0031719 -0.0208365 0.00893463 2650 
220 1 -0.00338486 0.00342196 -0.013998 4.2e-05 0.00197382 0.00663681 0.00671825 2650 
3787 1 -0.00674726 0.00406122 -0.013767 0.000116 -0.0024271 -0.00223267 -0.0195234 2650 
1388 1 -0.00587507 0.00548159 -0.0138295 0.000116 -0.039288 0.0021603 0.0169103 2650 
1288 1 -0.002467 0.00562702 -0.014044 0.000116 0 -0.011753 0 2650 
3515 1 -0.00834765 0.00669725 -0.0138655 0.000656 -0.00454215 -0.00749919 0.00616721 2650 
1618 1 -0.00972491 0.00753921 -0.0136915 0.000116 0.0059414 0.00192455 -0.00369393 2650 
3364 1 -0.00671056 0.00786576 -0.0137832 0.000116 -0.00179506 0.0163753 -0.0232219 2650 
1769 1 -0.00817892 0.00820233 -0.0139295 0.000656 -0.0137362 -0.00803998 0.00121316 2650 
4190 1 -0.00895565 0.00912738 -0.0138304 0.000423 -0.00788233 0.00684233 0.00501954 2650 
2092 1 -0.00671828 0.00923372 -0.0137991 0.000656 -0.000561231 0.00152073 0.0231434 2650 
1827 1 -0.0047523 0.00883022 -0.0141083 0.000116 0.0445821 -0.0304485 -0.00868089 2650 
2313 1 -0.00336119 0.00883314 -0.0137938 0.000656 0.0129983 0.0241547 0.0127298 2650 
1409 1 -0.00044 0.00940702 -0.013868 0.000116 0 -0.011753 0 2650 
1476 1 -0.00743464 0.00995711 -0.0134407 0.000423 -0.00887684 0.00532697 0.00249764 2650 
2453 1 -0.00608409 0.011184 -0.0135888 0.000423 0.00287214 0.0261989 -0.0126472 2650 
1802 1 -0.00345742 0.012409 -0.0135747 0.000423 0.00500259 -0.000364755 -0.0111755 2650 
3163 1 -0.00829592 0.0132633 -0.0139685 0.000116 0.00944139 0.0175584 0.0253463 2650 
3838 1 -0.00541822 0.0129617 -0.0140778 0.000656 0.0059045 0.0308137 -0.0288407 2650 
3145 1 -0.00834708 0.0136033 -0.0134346 0.000116 -0.0186098 0.0309384 -0.020461 2650 
3825 1 -0.00961428 0.0143962 -0.0136986 0.000116 -0.069686 0.0193601 -0.0251245 2650 
949 1 -0.00920321 0.0149063 -0.0139831 0.000116 0.00609202 0.0335108 0.0318859 2650 
1634 1 -0.0676753 -0.0254256 -0.0128477 0.000116 -1.17032 -0.269746 6.13636 2650 
3874 1 -0.0672727 -0.0159827 -0.0133153 0.000423 -1.20663 0.0686233 6.06034 2650 
2332 1 -0.00573499 -0.000831774 -0.0133249 0.000423 -0.0114447 -0.00779769 0.00753018 2650 
3011 1 -0.00116994 -0.00125848 -0.0132569 0.000423 0.0180353 -0.0317081 -0.0392676 2650 
3191 1 -0.00954266 -0.000681444 -0.0129815 0.000656 -0.0183475 -0.00795438 -0.00635009 2650 
2525 1 -0.004063 -0.000145978 -0.013231 4.2e-05 0 -0.011753 0 2650 
4126 1 -0.00805463 0.00118823 -0.0127585 0.000116 -0.0261531 0.0084042 0.00402279 2650 
3880 1 -0.0104154 0.00184729 -0.0127322 0.000423 -0.0100599 -0.0142228 0.0101352 2650 
3316 1 -0.00989899 0.00235928 -0.0131729 0.000423 -0.0114153 -0.0186534 -0.00362391 2650 
2512 1 -0.00718341 0.00194384 -0.013383 0.000116 0.018779 -0.0192413 0.00230208 2650 
3917 1 -0.003984 0.00215502 -0.012703 0.000116 0 -0.011753 0 2650 
2059 1 -0.003583 0.00236402 -0.012756 0.000116 0 -0.011753 0 2650 
150 1 -0.00973193 0.00387378 -0.013262 0.000423 -0.0332403 0.0236354 0.0259176 2650 
1032 1 -0.00497811 0.00327338 -0.0129803 0.000423 0.0140776 0.00865188 0.010778 2650 
3446 1 -0.000595517 0.00375405 -0.0131989 0.000423 0.016221 -0.0142776 -0.00742368 2650 
3587 1 -0.0106365 0.00458368 -0.0126611 0.000116 -0.0579635 0.0255056 0.0285778 2650 
763 1 -0.00681874 0.00414884 -0.0131748 4.2e-05 -0.0107376 -0.0192397 -0.014763 2650 
1427 1 -0.002948 0.00469502 -0.013376 4.2e-05 0 -0.011753 0 2650 
3362 1 -0.00261678 0.00476442 -0.0128356 0.000116 0.000350619 -0.00253681 -0.00404217 2650 
2322 1 -0.00909905 0.00564752 -0.0133495 0.000656 -0.00463581 -0.0140818 0.00324309 2650 
4179 1 -0.00812046 0.00588303 -0.0129465 0.000423 -0.000889884 -0.0208242 0.00186897 2650 
445 1 -0.0101118 0.00703431 -0.0126316 0.000656 -0.00236227 -0.000765152 0.00548657 2650 
2918 1 -0.0066425 0.00674562 -0.0134032 0.000116 0.0149777 0.0131491 0.0124233 2650 
963 1 -0.00691487 0.00694396 -0.0133378 0.000116 0.00350227 -0.00324664 0.0156587 2650 
2912 1 -0.0053798 0.0066679 -0.0130967 0.000116 0.00196064 0.0151142 0.00117299 2650 
1250 1 -0.00892573 0.00759692 -0.0134109 0.000423 -0.0126021 -0.0099031 0.00355829 2650 
4257 1 -0.0081795 0.00750956 -0.0131352 0.000116 -0.00578911 -0.00907208 0.00958653 2650 
2222 1 -0.000707847 0.00777397 -0.0128557 0.000423 0.00109584 0.00172293 0.0219135 2650 
2483 1 -0.00637918 0.00808421 -0.0130197 0.000116 0.0222317 -0.00887276 -0.000700143 2650 
4368 1 -0.000988904 0.00863588 -0.0130661 0.000116 0.0213285 8.20602e-05 -0.0260591 2650 
1237 1 -0.00953478 0.00942506 -0.0132711 0.000423 -0.00626746 0.00986586 0.00606863 2650 
842 1 -0.00751397 0.00875935 -0.0132185 0.000116 0.0142557 0.0140049 -0.0234983 2650 
1775 1 -0.0082624 0.0102215 -0.0131516 0.000423 -0.000575409 -0.0115316 -0.00160845 2650 
3847 1 -0.00938795 0.0105679 -0.0132299 0.000656 0.000663601 0.0153864 -0.00910714 2650 
2798 1 -0.00674566 0.0116915 -0.0127999 0.000423 0.00307291 0.0287307 -0.0047091 2650 
128 1 -0.000202126 0.0125568 -0.0132839 0.000423 -0.0151911 0.0337573 -0.0149348 2650 
3471 1 -0.0077149 0.0130119 -0.0132716 0.000116 0.00654915 0.0415659 -0.0136084 2650 
2191 1 -0.00149302 0.013068 -0.0131754 4.2e-05 -0.0219515 0.010649 -0.0334451 2650 
1617 1 -0.000713589 0.0128638 -0.0130749 0.000116 0.00511482 0.0710113 0.047396 2650 
3686 1 -0.0108899 0.0178867 -0.0127568 0.000116 0.0215061 0.0913964 -0.00906023 2650 
4231 1 -0.0017404 0.0184944 -0.0134133 0.000116 -0.0134934 0.0153003 0.0304581 2650 
3051 1 -0.00889243 0.0237063 -0.013333 0.000116 0.128093 -0.215655 -0.111448 2650 
148 1 -0.0103231 0.0261924 -0.0128694 0.000423 -0.126154 -0.159151 0.0929372 2650 
2643 1 -0.00978899 0.0339166 -0.0128363 0.000656 -0.0823633 0.0688822 0.0201377 2650 
3973 1 -0.00584904 0.0391107 -0.0127352 0.000423 -0.0294603 0.112835 -0.0424766 2650 
3820 1 -0.000748847 0.0493684 -0.013155 0.000116 0.00708078 0.241917 -0.0365799 2650 
269 1 -0.0674782 -0.0272091 -0.0122346 0.000423 -1.16678 -0.682377 6.44158 2650 
2664 1 -0.0674407 -0.0242223 -0.0124354 0.000423 -1.20847 -0.358555 6.52005 2650 
2349 1 -0.0675474 -0.0196307 -0.0118435 0.000423 -1.2124 0.106135 6.98586 2650 
3093 1 -0.00344385 -0.00336478 -0.0125915 0.000423 -0.248297 -0.0301906 -0.907037 2650 
1408 1 -0.0677413 -0.00262855 -0.0124944 0.000116 -1.16113 -0.327819 6.26779 2650 
3882 1 -0.0100705 -0.00283183 -0.0118574 0.000423 -0.0315108 -0.0194428 -0.0375566 2650 
1422 1 -0.00400299 -0.00180926 -0.0122757 4.2e-05 -0.0036076 -0.017528 0.00216624 2650 
3477 1 -0.00434911 -0.00231945 -0.0120736 0.000116 0.0183398 -0.0587002 0.0125841 2650 
3249 1 -0.0114264 -0.000256174 -0.0121549 0.000116 -0.0378681 -0.0258717 -0.0093562 2650 
623 1 -0.00837546 -0.000539761 -0.0125066 0.000116 -0.0192086 -0.00896372 0.0230222 2650 
3389 1 -0.010415 0.000652022 -0.012026 0.000116 0 -0.011753 0 2650 
2619 1 -0.0064906 0.000268791 -0.0126078 0.000116 -0.0137973 -0.0204082 0.00531131 2650 
4165 1 -0.005333 2.40505e-05 -0.01261 0.000656 -0.00295906 -0.0330191 0.0101422 2650 
3956 1 -0.00962603 0.000953044 -0.0122955 0.000656 -0.011959 0.00314662 -0.000969155 2650 
3551 1 -0.00839812 0.000916191 -0.0122487 0.000423 -0.015336 0.00523015 0.00637389 2650 
676 1 -0.00465868 0.00228001 -0.0125706 0.000423 0.0030198 -0.00797062 0.0224423 2650 
3826 1 -0.0104578 0.0024864 -0.0125796 0.000116 -0.0312359 -0.00760565 -0.00168919 2650 
4374 1 -0.00937544 0.00236891 -0.01206 4.2e-05 -0.00342399 0.0134868 -0.018776 2650 
1171 1 -0.00705527 0.00281877 -0.0124508 0.000116 0.0131753 -0.0110464 0.0150896 2650 
411 1 -0.0114998 0.00367484 -0.0121012 0.000116 -0.00787832 -0.00657823 -8.20909e-05 2650 
1261 1 -0.00771084 0.00395669 -0.01237 0.000423 -0.00427187 -0.0142005 0.00299326 2650 
708 1 -0.000621741 0.0040278 -0.0120742 0.000423 0.023903 0.00196086 0.00368067 2650 
2194 1 -0.00163811 0.00480321 -0.0121703 4.2e-05 0.00491046 0.00111596 0.00228026 2650 
3030 1 -0.001189 0.00481002 -0.012596 0.000116 0 -0.011753 0 2650 
4078 1 -0.0104991 0.00600227 -0.0123328 0.000423 -0.000913784 0.00267709 0.00687214 2650 
3259 1 -0.00881382 0.00627696 -0.0126047 0.000116 0.00136236 -0.0113258 0.00321419 2650 
3322 1 -0.00309895 0.00565005 -0.0118945 0.000423 0.0051535 0.00245556 0.00244604 2650 
2649 1 -0.000183956 0.00597178 -0.0125194 0.000656 0.0169371 -0.0104487 -0.0195285 2650 
4318 1 -0.00851897 0.00683231 -0.0119684 0.000423 -0.000156132 -0.00757278 0.00171777 2650 
4002 1 -0.000443 0.00697102 -0.01223 0.000116 0 -0.011753 0 2650 
1795 1 -0.00901467 0.00720199 -0.0125961 0.000423 -5.39571e-05 -0.00579665 0.00392393 2650 
2630 1 -0.001036 0.00714702 -0.012074 4.2e-05 0 -0.011753 0 2650 
1241 1 -0.00949611 0.00866566 -0.0121647 0.000423 -0.00486634 -0.0127471 -0.0163098 2650 
3310 1 -0.00508165 0.00838678 -0.0124559 0.000423 -0.0177377 -0.0120473 -0.00615369 2650 
1423 1 -0.00145 0.00862702 -0.012526 4.2e-05 0 -0.011753 0 2650 
205 1 -0.000693229 0.00794095 -0.0121458 0.000116 0.00114706 0.000219934 0.0269812 2650 
3776 1 -0.00926247 0.0100746 -0.0121309 0.000423 -0.00858064 -0.00442766 -0.00549231 2650 
450 1 -0.00498415 0.0107522 -0.0123609 0.000656 0.00905578 0.038289 0.00539906 2650 
2094 1 -0.00996518 0.0117082 -0.0125674 0.000656 -0.0146614 0.00355759 -0.0161857 2650 