ITEM: TIMESTEP
11046354
ITEM: NUMBER OF ATOMS
4325
ITEM: BOX BOUNDS ff ff ff
-0.15 0.15
-0.15 0.06
-0.15 0.15
ITEM: ATOMS id type x y z radius vx vy vz density 
1647 1 -0.121747 -0.04017 -0.0312483 4.2e-05 -7.28114 0.0348623 2.48323 2650 
83 1 -0.107288 -0.0416472 -0.0119563 0.000116 -9.43131 -0.0866193 6.02084 2650 
1841 1 -0.124108 -0.0389005 0.00260343 0.000116 -8.90391 0.288203 6.19713 2650 
618 1 -0.00780168 -0.0473118 -0.0684384 0.000116 -7.62767 0.0480152 0.869436 2650 
947 1 -0.0136721 -0.0587553 -0.0675136 0.000116 -7.06176 -0.192895 1.41413 2650 
3360 1 -0.0134012 -0.0453755 -0.0675672 0.000116 -7.15507 0.350067 1.42275 2650 
1856 1 -0.0277266 -0.0536362 -0.0630422 0.000116 -5.05196 -0.143986 2.32699 2650 
1550 1 -0.0351326 -0.0514076 -0.0586258 0.000656 -7.48696 0.166927 4.45825 2650 
3946 1 -0.0357344 -0.0498582 -0.0589773 4.2e-05 -6.0201 -0.0136559 3.65036 2650 
3840 1 -0.0481265 -0.0457677 -0.0485287 0.000656 -6.08364 0.0411557 6.09117 2650 
2835 1 -0.0548844 -0.0586372 -0.0416243 0.000116 -4.33939 -0.61975 5.69836 2650 
4025 1 -0.0685397 -0.0456933 -0.00687878 0.000116 -0.69266 0.570978 6.98693 2650 
2064 1 -0.0687176 -0.048863 -0.00478575 0.000116 -0.485653 0.675704 6.99192 2650 
1320 1 -0.0689025 -0.0480632 -0.00277109 4.2e-05 -0.293787 -0.418413 7.204 2650 
3391 1 -0.0688731 -0.0498761 0.00338515 4.2e-05 0.269677 -0.308497 6.20774 2650 
669 1 -0.0670292 -0.0616553 0.0133574 0.000656 1.65489 -0.0224593 8.24227 2650 
1256 1 -0.063175 -0.0461354 0.0266822 0.000423 3.434 0.0509026 8.15545 2650 
1462 1 -0.0412328 -0.0476188 0.0547594 0.000423 6.0545 0.257476 4.55042 2650 
51 1 -0.0374414 -0.0514927 0.0574475 0.000423 6.87017 -0.0949749 4.49935 2650 
4316 1 -0.031856 -0.0450209 0.0607302 0.000423 7.40824 -0.100666 3.89485 2650 
2317 1 -0.0299644 -0.0475556 0.0614287 0.000656 8.01333 -0.0943634 3.93112 2650 
2717 1 -0.0303037 -0.0503011 0.061861 0.000116 4.37688 -0.596503 2.14659 2650 
1568 1 -0.0287967 -0.0479081 0.0622392 0.000423 6.99297 -0.0856705 3.22503 2650 
4288 1 -0.00814996 -0.0476682 0.0680888 0.000423 7.50832 -0.0833617 0.891256 2650 
1964 1 -0.00314566 -0.0287455 -0.0687859 0.000116 -7.53758 0.602212 0.349695 2650 
312 1 -0.00195958 -0.028697 -0.0688377 0.000116 -7.09245 -0.314074 0.147953 2650 
1050 1 -0.00514964 -0.0182974 -0.0686913 0.000116 -5.54487 -0.388015 0.425943 2650 
3282 1 -0.00147149 -0.0142325 -0.0689419 4.2e-05 -5.84918 -0.429001 0.130492 2650 
2821 1 -0.00501091 -0.00197596 -0.0687014 0.000116 -6.51952 0.00781416 0.471291 2650 
186 1 -0.00190043 -0.00153515 -0.0688576 0.000116 -5.11364 -0.123249 0.146286 2650 
1555 1 -0.00328892 -0.0387607 -0.0684912 0.000423 -7.81612 -0.0739198 0.367018 2650 
1721 1 -0.0109913 -0.035161 -0.0680018 0.000116 -6.40392 0.140164 1.08642 2650 
2451 1 -0.00869636 -0.0355204 -0.0680221 0.000423 -7.26528 0.222655 0.892244 2650 
2232 1 -0.00404021 -0.0337707 -0.0684275 0.000423 -7.69222 -0.0844991 0.489692 2650 
3041 1 -0.00663976 -0.0325674 -0.0685571 0.000116 -7.19442 0.0538842 0.697507 2650 
4210 1 -0.00334854 -0.0328755 -0.0684661 0.000423 -7.71367 -0.00974311 0.376779 2650 
27 1 -0.00935579 -0.0316778 -0.0679357 0.000423 -7.32826 -0.00697724 0.994507 2650 
1563 1 -0.00193435 -0.0314196 -0.0685327 0.000423 -7.76042 0.0209286 0.174742 2650 
3729 1 -0.00714702 -0.0288121 -0.0679665 0.000656 -7.83226 -0.0526807 0.833919 2650 
3531 1 -0.00800382 -0.027951 -0.0681091 0.000423 -7.79243 0.118377 0.8988 2650 
476 1 -0.00268303 -0.0271746 -0.0684997 0.000423 -7.11495 0.00262118 0.253615 2650 
632 1 -0.00889854 -0.0264295 -0.068303 0.000116 -7.15493 -0.407697 0.955935 2650 
1231 1 -0.0056877 -0.0263282 -0.0683363 0.000423 -7.35992 -0.049966 0.586814 2650 
3642 1 -0.00545494 -0.0254665 -0.0683592 0.000423 -7.63077 0.125242 0.573705 2650 
2343 1 -0.00443988 -0.0254954 -0.0684277 0.000423 -7.73612 -0.0164758 0.505586 2650 
1136 1 -0.00463075 -0.0246444 -0.0684139 0.000423 -7.7387 -0.0326271 0.535897 2650 
14 1 -0.00491221 -0.0238465 -0.068398 0.000423 -7.72053 -0.0254619 0.577316 2650 
4021 1 -0.0101377 -0.0233458 -0.0681329 0.000116 -7.14882 -0.146865 1.06639 2650 
1916 1 -0.00807928 -0.0218779 -0.0681002 0.000423 -7.564 -0.134044 0.903728 2650 
2014 1 -0.00229437 -0.0161075 -0.0685395 0.000423 -7.13999 -0.11536 0.220831 2650 
3024 1 -0.00634867 -0.0154001 -0.0685906 0.000116 -7.1086 -0.375577 0.654611 2650 
1314 1 -0.00700533 -0.00497157 -0.0686009 4.2e-05 -8.35684 -0.489909 0.854489 2650 
1333 1 -5.5574e-05 -0.00505767 -0.0685778 0.000423 -4.1315 -0.193899 0.0306158 2650 
555 1 -0.0130088 -0.0404352 -0.0670971 0.000656 -8.00131 -0.137243 1.58382 2650 
1030 1 -0.0126704 -0.0373617 -0.0673964 0.000423 -7.11942 -0.272071 1.33849 2650 
1056 1 -0.0143257 -0.0356047 -0.0673781 0.000116 -7.33059 -0.244011 1.55869 2650 
2663 1 -0.0130012 -0.0357772 -0.0673341 0.000423 -7.73734 0.391818 1.50677 2650 
3372 1 -0.0142924 -0.0272452 -0.0673851 0.000116 -7.62964 -0.109929 1.61628 2650 
3543 1 -0.01129 -0.0213423 -0.0676422 0.000423 -7.30397 -0.0867684 1.21826 2650 
2530 1 -0.0105629 -0.0203931 -0.0675254 0.000656 -7.20489 -0.114649 1.14484 2650 
479 1 -0.0109582 -0.019074 -0.0676963 0.000423 -7.81412 -0.0892653 1.2764 2650 
710 1 -0.0116294 -0.0146186 -0.0675848 0.000423 -7.09356 -0.0424709 1.24667 2650 
4254 1 -0.0125906 -0.0137959 -0.0677241 0.000116 -7.15201 0.213861 1.32507 2650 
3269 1 -0.0120095 -0.00869249 -0.0678298 0.000116 -3.2704 -0.2058 0.567886 2650 
2314 1 -0.0137611 -0.0445769 -0.0669462 0.000656 -8.69605 -0.180454 1.79509 2650 
3850 1 -0.0143067 -0.0396622 -0.067069 0.000423 -8.02136 -0.122956 1.71426 2650 
2803 1 -0.018067 -0.0373642 -0.0664726 0.000116 -6.37038 0.0832415 1.73798 2650 
1016 1 -0.0168263 -0.0305256 -0.0664821 0.000423 -7.35943 -0.0331207 1.87667 2650 
2576 1 -0.0152959 -0.029638 -0.0668515 0.000423 -7.15479 -0.0727908 1.61388 2650 
3464 1 -0.0175559 -0.0262703 -0.0666096 0.000116 -6.87918 0.590851 1.80521 2650 
4251 1 -0.0161705 -0.0247129 -0.0669589 0.000116 -7.48334 0.0158651 1.79927 2650 
2112 1 -0.0161324 -0.0239363 -0.0666529 0.000423 -7.52369 0.0131173 1.80182 2650 
3734 1 -0.0157652 -0.0227574 -0.0665033 0.000656 -7.30797 0.0323004 1.69921 2650 
3640 1 -0.0165143 -0.0187395 -0.0665602 0.000423 -6.84661 -0.082638 1.72154 2650 
1224 1 -0.0166778 -0.0156553 -0.0665194 0.000423 -6.78376 -0.212782 1.7082 2650 
549 1 -0.0180694 -0.0119733 -0.0665486 4.2e-05 -6.00786 0.459002 1.62674 2650 
992 1 -0.0171779 -0.0347848 -0.0661532 0.000656 -7.75563 0.0200299 2.00379 2650 
2430 1 -0.0182022 -0.0334402 -0.0658775 0.000656 -7.43443 -0.0431391 2.06006 2650 
4380 1 -0.0213996 -0.0292539 -0.0655533 4.2e-05 -8.22748 0.852779 2.68802 2650 
2462 1 -0.0191236 -0.0272822 -0.0658572 0.000423 -7.03209 0.554729 2.05527 2650 
3084 1 -0.0181423 -0.0253086 -0.0658944 0.000656 -7.69143 -0.00480753 2.10054 2650 
3978 1 -0.017839 -0.0235348 -0.066217 0.000423 -7.58072 0.12226 2.05357 2650 
4011 1 -0.0199146 -0.0222926 -0.0659424 0.000116 -7.50553 0.100792 2.26994 2650 
3443 1 -0.0191609 -0.0223303 -0.065847 0.000423 -7.41518 -0.0116205 2.16696 2650 
1596 1 -0.0211465 -0.000116102 -0.0655577 0.000116 -5.76502 0.00108291 1.85685 2650 
1046 1 -0.0187638 -0.000115986 -0.066279 0.000116 -6.47197 0.000832201 1.82836 2650 
1372 1 -0.0209047 -0.0310577 -0.0653138 0.000423 -7.16735 0.0654325 2.30205 2650 
1915 1 -0.0207399 -0.0301085 -0.0653666 0.000423 -7.08071 0.120117 2.2289 2650 
4309 1 -0.0207084 -0.0292631 -0.0653766 0.000423 -7.03081 0.117552 2.23686 2650 
2337 1 -0.0211289 -0.0274063 -0.0652413 0.000423 -6.52762 0.148259 2.12297 2650 
228 1 -0.0211269 -0.026113 -0.0649997 0.000656 -7.66322 -0.031723 2.4964 2650 
1838 1 -0.0220293 -0.0231562 -0.0652662 0.000116 -7.01789 0.294601 2.37037 2650 
4212 1 -0.0209531 -0.0231991 -0.0652985 0.000423 -6.92676 0.140138 2.2118 2650 
3376 1 -0.0217265 -0.0223254 -0.0653678 0.000116 -7.27134 0.223085 2.43848 2650 
3656 1 -0.0243188 -0.0313441 -0.0641215 0.000423 -6.73705 -0.120815 2.60968 2650 
1060 1 -0.0243401 -0.0273466 -0.0644393 0.000116 -6.92208 0.304035 2.62628 2650 
1020 1 -0.0233827 -0.0238073 -0.0644686 0.000423 -7.24543 -0.106877 2.6323 2650 
4082 1 -0.0243606 -0.0171451 -0.0641056 0.000423 -6.7937 -0.250586 2.60288 2650 
2116 1 -0.0249178 -0.0386116 -0.0638843 0.000423 -5.85709 0.252312 2.24214 2650 
3577 1 -0.0264243 -0.0212089 -0.0636139 0.000116 -7.7138 -0.342629 3.21724 2650 
486 1 -0.0259231 -0.0204837 -0.0634892 0.000423 -7.72392 0.00997154 3.16051 2650 
3358 1 -0.0261306 -0.0193608 -0.0637342 0.000116 -7.79142 0.0402392 3.19253 2650 
1813 1 -0.0253408 -0.0191827 -0.0637172 0.000423 -6.8857 -0.398623 2.74557 2650 
2427 1 -0.0269716 -0.0296722 -0.0627667 0.000656 -6.66291 -0.105623 2.88444 2650 
2818 1 -0.0284884 -0.0282933 -0.0627047 0.000116 -6.87258 -0.184481 3.22879 2650 
1325 1 -0.0277511 -0.0270408 -0.0624405 0.000656 -6.78752 -0.0130576 3.08006 2650 
146 1 -0.0281851 -0.0240243 -0.0625132 0.000423 -6.97545 0.0132045 3.17805 2650 
2800 1 -0.0276865 -0.023088 -0.0627377 0.000423 -7.04098 0.0172407 3.1023 2650 
2382 1 -0.0282455 -0.0136542 -0.0628241 0.000116 -4.91218 -0.349653 2.06788 2650 
868 1 -0.027959 -0.0137267 -0.0629485 0.000116 -4.54779 -0.547777 2.23973 2650 
169 1 -0.0278231 -0.00487775 -0.0630055 0.000116 -5.8507 -0.431476 2.66997 2650 
2670 1 -0.0301766 -0.0358053 -0.0615785 0.000423 -6.68107 -0.273438 3.2729 2650 
1560 1 -0.0297945 -0.0250394 -0.0617656 0.000423 -7.05678 0.0410524 3.39273 2650 
2002 1 -0.0289809 -0.0241448 -0.0621512 0.000423 -6.95379 0.00328386 3.23292 2650 
3328 1 -0.029798 -0.0203543 -0.0617663 0.000423 -7.34418 -0.00606046 3.54096 2650 
1825 1 -0.0300692 -0.00705843 -0.061966 0.000116 -5.90946 0.948517 2.85875 2650 
1107 1 -0.0301391 -0.0379052 -0.0613409 0.000656 -7.26794 -0.10372 3.58856 2650 
3351 1 -0.0315329 -0.0284944 -0.0612409 0.000116 -5.97232 -0.707507 3.05956 2650 
3514 1 -0.0308171 -0.0250351 -0.0610041 0.000656 -6.93712 0.000423296 3.5038 2650 
3540 1 -0.0315269 -0.0241947 -0.0609002 0.000423 -6.81633 0.162864 3.51565 2650 
1669 1 -0.0317925 -0.0222979 -0.0607625 0.000423 -7.02126 -0.0961791 3.71115 2650 
78 1 -0.0309663 -0.0210142 -0.0615312 0.000116 -8.02253 0.545919 4.03371 2650 
3815 1 -0.0310295 -0.0175332 -0.0614982 0.000116 -5.03898 -0.145681 2.55291 2650 
854 1 -0.0313766 -0.00289103 -0.0613228 0.000116 -6.43637 0.21677 3.25809 2650 
2708 1 -0.0329317 -0.0372092 -0.0605022 0.000116 -7.03696 -0.895142 3.83956 2650 
1104 1 -0.0327559 -0.0313541 -0.0599855 0.000656 -6.76591 0.0111218 3.69502 2650 
4303 1 -0.0327732 -0.0266205 -0.0602401 0.000423 -6.28754 -0.512694 3.43773 2650 
1912 1 -0.0321878 -0.0260431 -0.0605535 0.000423 -6.37179 -0.414487 3.384 2650 
3393 1 -0.0332955 -0.0237714 -0.0603867 4.2e-05 -6.99337 -0.317559 3.84571 2650 
1002 1 -0.0323066 -0.0238121 -0.0602294 0.000656 -6.78562 0.113213 3.63913 2650 
3783 1 -0.0332308 -0.0233025 -0.0599881 0.000423 -6.71815 0.221495 3.7139 2650 
4062 1 -0.0324517 -0.0164537 -0.0601496 0.000656 -5.2761 -0.110558 2.85333 2650 
1341 1 -0.0322309 -0.0149134 -0.0605293 0.000423 -5.43784 0.154613 2.89162 2650 
1095 1 -0.0335293 -0.00842095 -0.0602575 4.2e-05 -5.40331 -0.170745 3.01525 2650 
21 1 -0.0336742 -0.0321263 -0.0597414 0.000423 -6.70677 -0.0999904 3.78806 2650 
1227 1 -0.0339512 -0.0235366 -0.059584 0.000423 -6.64462 0.0436591 3.80768 2650 
4095 1 -0.0336499 -0.0217426 -0.0597543 0.000423 -6.41435 0.0452479 3.61129 2650 
4260 1 -0.0340027 -0.0199098 -0.0599067 0.000116 -5.88178 0.400702 3.32781 2650 
330 1 -0.0370019 -0.0315899 -0.0581906 4.2e-05 -7.88656 -1.34136 5.01129 2650 
1119 1 -0.0367725 -0.02183 -0.0578848 0.000423 -5.20588 -0.278695 3.30231 2650 
1058 1 -0.0367319 -0.0168584 -0.0582733 0.000116 -6.13798 -0.402916 3.85169 2650 
2967 1 -0.0370508 -0.0193602 -0.0574319 0.000656 -6.12555 -0.12078 3.95774 2650 
2768 1 -0.0374037 -0.0140106 -0.0574799 0.000423 -5.39589 -0.0790748 3.49336 2650 
204 1 -0.0402733 -0.0243624 -0.0558843 0.000116 -5.80298 -0.791395 4.17101 2650 
34 1 -0.0416647 -0.0212624 -0.0544699 0.000423 -6.02239 0.257774 4.60656 2650 
4373 1 -0.0418239 -0.00167836 -0.0548262 4.2e-05 -6.25238 1.074 4.76832 2650 
3602 1 -0.0425275 -0.0202325 -0.0541887 0.000116 -7.80327 -0.0230543 6.12457 2650 
1055 1 -0.0426408 -0.00994755 -0.0540994 0.000116 -5.30743 -0.457506 4.17262 2650 
1995 1 -0.04183 -0.00895058 -0.0543432 0.000423 -5.65819 0.316727 4.35417 2650 
3118 1 -0.0434615 -0.0314353 -0.0530473 0.000423 -6.83593 0.183408 5.60012 2650 
3527 1 -0.0431799 -0.0232196 -0.0532767 0.000423 -5.97913 0.0376631 4.84407 2650 
1193 1 -0.0440506 -0.00408829 -0.0529577 0.000116 -2.4836 -0.0314545 2.01354 2650 
3633 1 -0.0438125 -0.028212 -0.0527583 0.000423 -6.02241 -0.0967365 4.96495 2650 
3319 1 -0.0451144 -0.0431657 -0.051649 0.000423 -6.68537 0.129488 5.8379 2650 
121 1 -0.0443961 -0.0276189 -0.0519617 0.000656 -5.90621 -0.0258456 5.04371 2650 
1365 1 -0.0449189 -0.025892 -0.0518189 0.000423 -5.8438 0.231628 5.00144 2650 
2081 1 -0.0454783 -0.0248993 -0.0518278 4.2e-05 -5.84726 0.224007 5.09102 2650 
4366 1 -0.045939 -0.0232209 -0.0513165 0.000116 -5.88551 0.193136 5.26949 2650 
4110 1 -0.0455297 -0.0228574 -0.0512723 0.000423 -5.84201 0.193429 5.17231 2650 
160 1 -0.0449399 -0.0207034 -0.0518005 0.000423 -5.88252 0.100986 5.08211 2650 
3603 1 -0.0457783 -0.0204508 -0.0514718 0.000116 -5.77183 0.326702 5.1252 2650 
235 1 -0.0463046 -0.0232174 -0.0505829 0.000423 -5.7148 0.028976 5.26102 2650 
440 1 -0.046084 -0.00510669 -0.0512795 4.2e-05 -2.52264 -0.0852008 2.12371 2650 
1072 1 -0.0460598 -0.000529121 -0.0512201 0.000116 -4.96159 -0.117185 4.43189 2650 
483 1 -0.0469712 -0.0426781 -0.0499666 0.000423 -6.66279 -0.0472134 6.2642 2650 
175 1 -0.0472328 -0.0392369 -0.0501371 0.000116 -6.6205 0.585371 6.24363 2650 
8 1 -0.0465793 -0.0388078 -0.050012 0.000656 -6.65751 -0.103971 6.19194 2650 
3947 1 -0.0468575 -0.0296357 -0.049696 0.000656 -5.76194 -0.00666349 5.45677 2650 
3311 1 -0.046572 -0.0253892 -0.0503201 0.000423 -5.43239 0.317376 5.02517 2650 
2162 1 -0.0471971 -0.0219462 -0.0501733 0.000116 -5.89226 0.211984 5.5411 2650 
2813 1 -0.0475472 -0.0146914 -0.0498041 0.000116 -5.48928 0.224819 5.29998 2650 
3933 1 -0.0469946 -0.0140163 -0.0503113 0.000116 -5.92307 0.632707 5.54667 2650 
3882 1 -0.0430446 -0.00709453 -0.0502658 0.000423 -1.21436 -0.251095 3.09076 2650 
4177 1 -0.0474973 -0.028812 -0.0494176 0.000423 -5.68962 0.0302431 5.54397 2650 
201 1 -0.0488894 -0.000792817 -0.0485252 0.000116 -5.09666 -0.2406 5.13685 2650 
791 1 -0.0492001 -0.0218214 -0.047773 0.000423 -5.18827 -0.242237 5.3457 2650 
1934 1 -0.0493087 -0.0211212 -0.0481005 0.000116 -4.89939 -0.211171 5.01576 2650 
3477 1 -0.0494546 -0.00608385 -0.0479499 0.000116 -2.06425 -0.133853 2.30516 2650 
1833 1 -0.0493087 -0.000116014 -0.0481004 0.000116 -4.1586 -0.000686849 4.27028 2650 
1116 1 -0.0503098 -0.0355824 -0.0466037 0.000423 -5.20199 -0.0426939 5.6706 2650 
1509 1 -0.0500853 -0.0201855 -0.0472916 0.000116 -6.16208 0.0306164 6.52478 2650 
3748 1 -0.0499543 -0.0171743 -0.0469837 0.000423 -4.98236 -0.106484 5.30259 2650 
1202 1 -0.0505113 -4.2e-05 -0.0469446 4.2e-05 -3.73412 -0.000440068 3.99767 2650 
4306 1 -0.0504137 -0.0189156 -0.0464898 0.000423 -4.76642 0.0164623 5.16919 2650 
55 1 -0.05059 -0.017095 -0.0462982 0.000423 -4.72466 0.085222 5.14075 2650 
3650 1 -0.0511092 -0.0307504 -0.0457247 0.000423 -5.06762 -0.022131 5.64606 2650 
1474 1 -0.0511677 -0.028901 -0.0456595 0.000423 -4.91811 0.0680805 5.56618 2650 
1154 1 -0.0517579 -0.0232851 -0.0449875 0.000423 -4.65072 -0.109032 5.31991 2650 
1613 1 -0.0517423 -0.0222149 -0.0454717 0.000116 -5.28658 -1.08459 6.01483 2650 
601 1 -0.0516226 -0.0213905 -0.0451437 0.000423 -5.0293 -0.17186 5.73508 2650 
2593 1 -0.051713 -0.0121504 -0.0455052 0.000116 -2.62765 -0.0761196 2.98585 2650 
3350 1 -0.0516186 -0.00278971 -0.0456124 0.000116 -4.1232 -0.12774 4.64928 2650 
3385 1 -0.05223 -0.0270637 -0.0449118 0.000116 -4.89311 0.319737 5.67698 2650 
1130 1 -0.052122 -0.0239244 -0.044567 0.000423 -4.6658 -0.0292888 5.44391 2650 
2829 1 -0.0525321 -0.0208542 -0.0445576 0.000116 -4.45113 -0.477232 5.24781 2650 
4338 1 -0.0525215 -0.0154159 -0.0445704 0.000116 -4.31972 -0.0970221 5.06478 2650 
1808 1 -0.0522221 -0.0145574 -0.0444497 0.000423 -4.36109 -0.372548 5.13925 2650 
3673 1 -0.0522233 -0.010313 -0.0444498 0.000423 -2.71543 0.762889 3.2269 2650 
1500 1 -0.0532272 -0.0192089 -0.0437248 0.000116 -3.59524 -0.761113 4.35443 2650 
2634 1 -0.0538118 -0.0333215 -0.0431229 4.2e-05 -5.4585 -0.0596207 6.8116 2650 
1514 1 -0.0538174 -0.0258097 -0.0429967 0.000116 -4.38822 -0.375439 5.48891 2650 
2937 1 -0.0535186 -0.013384 -0.0433682 0.000116 -3.04617 0.151044 3.76135 2650 
419 1 -0.0542854 -0.0126846 -0.0424048 0.000116 -3.22422 0.3173 4.11338 2650 
1075 1 -0.054531 -0.00137307 -0.0420877 0.000116 -4.74062 -0.394574 6.1255 2650 
1956 1 -0.0541969 -0.000400836 -0.0425163 0.000116 -4.40289 0.0256616 5.61026 2650 
305 1 -0.0549794 -0.0160434 -0.0415005 0.000116 -4.38245 -0.986301 5.81769 2650 
3013 1 -0.0553206 -0.0153094 -0.0405293 0.000423 -3.73329 -0.158676 5.11537 2650 
3887 1 -0.0566105 -0.0323032 -0.0387074 0.000423 -4.2753 0.123006 6.2439 2650 
3547 1 -0.056548 -0.0310796 -0.0387991 0.000423 -4.33682 -0.0649475 6.30274 2650 
649 1 -0.0565346 -0.0125036 -0.0393551 0.000116 -3.6294 -0.721754 5.20511 2650 
2651 1 -0.0570201 -0.0379042 -0.0380999 0.000423 -4.46603 -0.033054 6.68342 2650 
661 1 -0.0566532 -0.0368976 -0.0382312 0.000656 -4.51183 -0.0257485 6.65863 2650 
4006 1 -0.0572633 -0.0358387 -0.0382877 0.000116 -4.64912 0.322935 6.95795 2650 
4064 1 -0.0567606 -0.0339119 -0.038071 0.000656 -3.53118 -0.235485 5.3006 2650 
886 1 -0.0564056 -0.0187453 -0.038597 0.000656 -4.3743 0.129486 6.38685 2650 
2545 1 -0.0569714 -0.00868725 -0.0381748 0.000423 -4.36671 -0.341082 6.51599 2650 
1051 1 -0.0575952 -0.0361284 -0.0377864 0.000116 -3.96079 -0.521082 6.01741 2650 
2062 1 -0.0575894 -0.0294234 -0.0377955 0.000116 -3.84824 0.267047 5.89696 2650 
1377 1 -0.0578209 -0.00472778 -0.0374403 0.000116 -3.43361 -0.422356 5.29298 2650 
2858 1 -0.0576302 -0.0314801 -0.0367433 0.000656 -4.1038 0.0195994 6.37839 2650 
3536 1 -0.0583536 -0.0307004 -0.0360255 0.000423 -3.99191 0.111019 6.43835 2650 
812 1 -0.0589199 -0.0393908 -0.0350911 0.000423 -3.60435 -0.0786996 6.07554 2650 
1944 1 -0.0606108 -0.0204706 -0.0348189 0.000116 -6.48373 -0.0238273 7.70736 2650 
3622 1 -0.058975 -0.042876 -0.0345354 0.000656 -4.281 -0.047895 7.32061 2650 
1572 1 -0.0593714 -0.0286181 -0.0343218 0.000423 -3.81907 0.132592 6.61353 2650 
1877 1 -0.0597637 -0.0279137 -0.0331599 0.000656 -3.73797 -0.0139731 6.71825 2650 
2224 1 -0.0598198 -0.0240046 -0.0335338 0.000423 -3.30443 0.222232 5.89171 2650 
1670 1 -0.0604237 -0.0287298 -0.032434 0.000423 -3.63993 -0.0875557 6.77152 2650 
4044 1 -0.0604332 -0.0220308 -0.0330538 0.000116 -4.12165 -2.13225 7.66507 2650 
3422 1 -0.0601493 -0.0209642 -0.0329391 0.000423 -3.58578 0.123936 6.54996 2650 
1805 1 -0.0606378 -0.0400505 -0.0320316 0.000423 -3.51697 -0.238848 6.65547 2650 
1206 1 -0.0617129 -0.0415641 -0.0307689 4.2e-05 -3.43425 0.419479 6.87995 2650 
917 1 -0.0611935 -0.028543 -0.030955 0.000423 -3.16068 0.0124687 6.19005 2650 
797 1 -0.0609719 -0.026284 -0.0313905 0.000423 -3.12968 0.176811 6.07806 2650 
2816 1 -0.0616331 -0.0226201 -0.030763 0.000116 -3.5097 0.471291 7.00554 2650 
3718 1 -0.0616255 -0.00354392 -0.0309272 4.2e-05 -2.65766 0.0295781 5.24354 2650 
3248 1 -0.0614906 -0.00256722 -0.0310383 0.000116 -2.88225 0.678312 5.74465 2650 
2007 1 -0.0614369 -0.0149601 -0.0304456 0.000423 -2.43739 -0.286747 5.06709 2650 
4145 1 -0.0617728 -0.0046485 -0.0304726 0.000116 -2.54918 -0.482765 5.18947 2650 
3219 1 -0.062033 -0.0294124 -0.0292385 0.000423 -3.11592 0.226252 6.66183 2650 
213 1 -0.0622897 -0.0101969 -0.0295515 4.2e-05 -2.51882 0.0558645 5.31646 2650 
3891 1 -0.0621272 -0.0351914 -0.0290376 0.000423 -2.52327 -1.37461 5.44349 2650 
2123 1 -0.0621523 -0.0338557 -0.0289845 0.000423 -3.09271 0.0450877 6.61129 2650 
991 1 -0.0619448 -0.0327842 -0.0288784 0.000656 -3.1386 0.0798566 6.74369 2650 
4017 1 -0.0625334 -0.0172606 -0.028883 0.000116 -3.24831 0.361074 7.04108 2650 
3875 1 -0.0625625 -0.0332796 -0.0280893 0.000423 -3.03485 -0.113661 6.77542 2650 
455 1 -0.0626876 -0.0272533 -0.0278072 0.000423 -2.84088 -0.102446 6.35816 2650 
1174 1 -0.0628219 -0.00769249 -0.0282253 0.000116 -2.52258 -0.344619 5.63211 2650 
311 1 -0.0633644 -0.043336 -0.0270178 0.000116 -3.59746 0.616101 8.43547 2650 
3691 1 -0.0631696 -0.0382698 -0.0274696 0.000116 -3.69534 0.593284 8.49423 2650 
4084 1 -0.0630802 -0.0257625 -0.0269041 0.000423 -2.74636 0.0218547 6.40496 2650 
733 1 -0.0632707 -0.00240377 -0.0272335 0.000116 -2.85256 -0.381941 6.63195 2650 
1655 1 -0.0629761 -0.0405263 -0.0265561 0.000656 -3.61732 -0.024518 8.48182 2650 
725 1 -0.0635941 -0.000994706 -0.026471 0.000116 -2.51973 -0.0657356 6.02312 2650 
245 1 -0.0637689 -0.0411521 -0.0252297 0.000423 -2.76457 -0.583989 6.97821 2650 
2248 1 -0.0640777 -0.0232418 -0.0244337 0.000423 -2.5111 0.0245055 6.63323 2650 
2700 1 -0.0646277 -0.0378995 -0.0238378 0.000116 -2.5471 0.21876 6.88735 2650 
3754 1 -0.0642558 -0.0268478 -0.0239621 0.000423 -2.31857 -0.0951362 6.17418 2650 
95 1 -0.0644602 -0.0262199 -0.0242888 0.000116 -2.44026 0.410039 6.44118 2650 
2148 1 -0.0644982 -0.0247246 -0.0241866 0.000116 -2.56323 -0.064322 6.8381 2650 
3096 1 -0.0643124 -0.0242672 -0.0238093 0.000423 -2.48542 0.0179753 6.6956 2650 
333 1 -0.0638795 -0.0107539 -0.0243001 0.000656 -2.63035 -0.00352773 6.92149 2650 
1031 1 -0.0641084 -0.00949701 -0.0243499 0.000423 -2.16182 -0.0915062 5.67051 2650 
3357 1 -0.0648092 -0.0402343 -0.0233407 0.000116 -2.70354 -0.245286 7.50037 2650 
42 1 -0.0644935 -0.0228544 -0.0233111 0.000423 -2.49408 -0.10322 6.82418 2650 
15 1 -0.0644674 -0.010744 -0.0233873 0.000423 -2.52932 0.0605218 6.98796 2650 
3386 1 -0.0655133 -0.0295512 -0.0212787 0.000116 -2.08912 0.246471 6.4723 2650 
1208 1 -0.0654739 -0.0146375 -0.0216427 4.2e-05 -2.29262 -0.373203 6.97912 2650 
4159 1 -0.0568178 -0.00457438 -0.0214857 4.2e-05 -8.76568 -0.130685 -3.31787 2650 
2514 1 -0.0654459 -0.00137061 -0.0214896 0.000116 -1.9828 0.00796501 6.00942 2650 
1566 1 -0.0653825 -0.0286213 -0.020683 0.000423 -2.07638 0.293036 6.55607 2650 
1901 1 -0.0656676 -0.0248638 -0.0197639 0.000423 -2.14282 0.0546577 7.06714 2650 
596 1 -0.0656906 -0.0155864 -0.0196895 0.000423 -1.93347 -0.0798195 6.44048 2650 
198 1 -0.0662249 -0.0326368 -0.0189545 0.000116 -1.83195 0.111828 6.54918 2650 
4345 1 -0.0660744 -0.0252602 -0.0194648 0.000116 -2.0643 -0.480368 7.01239 2650 
13 1 -0.0658172 -0.014495 -0.0192638 0.000423 -1.88172 0.0254565 6.41784 2650 
3491 1 -0.0663732 -0.0155828 -0.0184283 0.000116 -1.67969 0.0909762 6.06955 2650 
848 1 -0.0663365 -0.00691858 -0.0185618 0.000116 -1.21915 -0.493587 4.46646 2650 
2139 1 -0.0662171 -0.033847 -0.0178135 0.000423 -1.88157 -0.0996696 6.90267 2650 
1886 1 -0.0662421 -0.0178875 -0.0177449 0.000423 -1.5198 0.483207 5.70199 2650 
1585 1 -0.0663336 -0.0170622 -0.0174022 0.000423 -1.80902 -0.18186 6.8968 2650 
2921 1 -0.0665812 -0.00546625 -0.0176618 0.000116 -1.38476 0.0360075 5.19272 2650 
1463 1 -0.0663583 -0.0347907 -0.0172751 0.000423 -1.81063 -0.0475183 6.86622 2650 
1989 1 -0.0661672 -0.0194282 -0.0171212 0.000656 -1.61542 0.0739653 6.4327 2650 
2698 1 -0.0667867 -0.0107888 -0.01687 0.000116 -1.90108 -0.290633 7.52376 2650 
606 1 -0.000183 0.00117836 -0.016592 0.000116 0 -0.011753 0 2650 
302 1 -0.00187371 0.0103141 -0.0166705 0.000116 -0.0347922 0.0241041 0.0152166 2650 
3743 1 -0.0666053 -0.0316099 -0.0162885 0.000423 -1.6566 0.140801 6.72577 2650 
3862 1 -0.06662 -0.0216573 -0.0162691 0.000423 -1.75965 -0.43651 7.13853 2650 
2013 1 -0.00301468 0.00312115 -0.0158524 0.000423 -0.00154235 0.00221798 0.00156406 2650 
2301 1 -0.0043502 0.00332771 -0.0160115 4.2e-05 -0.00116259 -0.0070103 0.00459775 2650 
4227 1 -0.000338949 0.00345042 -0.0165621 0.000116 0.00593372 -0.017543 0.0130313 2650 
2283 1 -0.00353074 0.00458679 -0.0163719 0.000116 -0.00010552 0.00956354 0.000789399 2650 
889 1 -0.00119357 0.0046619 -0.0158339 0.000656 0.0221019 0.0158351 0.0220207 2650 
2520 1 -0.00017672 0.00490155 -0.0165412 4.2e-05 0.00318265 0.000380138 0.00682554 2650 
3365 1 -0.00161417 0.00616147 -0.0164313 0.000116 0.015804 0.0241832 0.0212134 2650 
978 1 -0.0020141 0.00622813 -0.0164388 0.000116 0.0180122 -0.00353228 -0.00159853 2650 
3934 1 -0.001977 0.00594036 -0.016218 0.000116 0 -0.011753 0 2650 
2726 1 -0.00057285 0.0091554 -0.0163154 0.000116 -0.00741369 0.00988612 -0.041436 2650 
3150 1 -0.00226441 0.010076 -0.0159732 0.000116 -0.0182263 -0.0087302 -0.0269448 2650 
938 1 -0.0015331 0.00993357 -0.0160536 0.000116 -0.00119823 0.000558801 -0.00633771 2650 
1483 1 -0.000492634 0.0105364 -0.0164479 0.000423 -0.000431738 0.0094693 0.00416488 2650 
3007 1 -0.00296237 0.0115487 -0.0160249 0.000423 -0.00754521 0.0118776 -0.00214285 2650 
371 1 -0.000546101 0.0119818 -0.0162738 0.000423 -0.00963196 0.00951459 -0.00479058 2650 
188 1 -0.0032061 0.0136083 -0.0161163 0.000116 -0.0148612 0.0228045 0.00418427 2650 
3051 1 -0.00259788 0.0141587 -0.016125 0.000116 0.163555 -0.227841 -0.0207843 2650 
2182 1 -0.00150268 0.0140963 -0.0161378 0.000116 0.00266263 0.0360122 0.0211071 2650 
2713 1 -0.000701903 0.0160041 -0.0158864 0.000116 0.00037122 0.035974 0.00535071 2650 
1717 1 -0.00405617 0.0310533 -0.0161573 0.000116 -0.014717 0.0706098 -0.0348682 2650 
2264 1 -0.000489374 0.0517334 -0.0164495 0.000116 -0.0637592 0.11185 0.0253368 2650 
630 1 -0.0671011 -0.0336136 -0.0154942 0.000116 -1.6702 -0.233733 6.82169 2650 
1316 1 -0.0671742 -0.0104675 -0.0155836 4.2e-05 -1.2427 -0.339302 5.44756 2650 
30 1 -0.00230409 -0.00240363 -0.0154083 0.000423 -0.0139928 -0.0214008 0.00726417 2650 
3599 1 -0.000169131 -0.00187248 -0.0153189 0.000116 0.0260231 -0.00977207 -0.00117121 2650 
3576 1 -0.000465898 -0.00138293 -0.0155541 0.000116 0.0561059 0.00120064 -0.0311085 2650 
999 1 -1.83345e-05 0.000401544 -0.0156643 0.000656 -0.00841998 -0.0161411 -0.0218233 2650 
2399 1 -0.002418 0.00139236 -0.015541 0.000116 0 -0.011753 0 2650 
3637 1 -0.00545156 0.00429136 -0.0152876 0.000423 -0.00704251 0.0124689 0.006236 2650 
1611 1 -0.00138884 0.00414002 -0.0151497 0.000116 0.0444256 -0.019621 0.0278665 2650 
1679 1 -0.00430941 0.00507768 -0.0157448 0.000423 -0.00453172 0.0157125 0.00260684 2650 
3830 1 -0.006879 0.00749236 -0.015411 4.2e-05 0 -0.011753 0 2650 
2438 1 -0.00624795 0.00724551 -0.0151569 0.000423 -0.00468347 -0.000292455 -0.00123863 2650 
2851 1 -0.00675663 0.0117497 -0.0153564 4.2e-05 -0.241757 -0.132402 0.104339 2650 
70 1 -0.00239406 0.0133634 -0.0155324 0.000116 0.0560864 0.0328811 0.00597028 2650 
2793 1 -0.000907446 0.0133145 -0.0151934 0.000423 0.00400332 0.0260717 0.000754087 2650 
3838 1 -0.00516419 0.0142874 -0.0153187 0.000656 0.0059045 0.0308137 -0.0288407 2650 
93 1 -0.00700213 0.020806 -0.0152608 0.000116 -0.0930021 0.08494 0.0463235 2650 
3165 1 -0.00620998 0.0211692 -0.015006 0.000116 -0.042342 0.12169 0.0695027 2650 
2466 1 -0.0027071 0.0228334 -0.0153576 0.000423 0.0618857 0.0331724 -0.00268308 2650 
3399 1 -0.0673889 -0.0314926 -0.0145888 4.2e-05 -1.60082 0.487598 7.27568 2650 
3626 1 -0.0667294 -0.025451 -0.0147535 0.000656 -1.51099 0.00230098 6.58872 2650 
3139 1 -0.0673774 -0.0103289 -0.0143283 0.000116 -1.44119 0.142345 6.707 2650 
3153 1 -0.0673857 -0.00560829 -0.0142885 0.000116 -0.985418 -0.10953 4.74456 2650 
579 1 -0.0670461 -0.00353423 -0.0144137 0.000423 -1.25685 0.0422753 5.80648 2650 
1053 1 -0.007469 -0.00244964 -0.014946 0.000116 0 -0.011753 0 2650 
3011 1 -0.000393985 -0.00262269 -0.0149463 0.000423 0.0180353 -0.0317081 -0.0392676 2650 
2666 1 -0.00771066 0.00263008 -0.0143026 0.000423 0.0108489 0.0809916 0.0205028 2650 
857 1 -0.00766375 0.00344348 -0.0147831 0.000116 -0.0623021 0.0193526 0.00200378 2650 
3787 1 -0.00685169 0.00396516 -0.014607 0.000116 -0.0024271 -0.00223267 -0.0195234 2650 
1192 1 -0.00721677 0.00646792 -0.0147736 0.000116 0.00510585 0.0133553 0.012363 2650 
1827 1 -0.00283419 0.00752019 -0.0144818 0.000116 0.0445821 -0.0304485 -0.00868089 2650 
3364 1 -0.00678779 0.0085703 -0.0147823 0.000116 -0.00179506 0.0163753 -0.0232219 2650 
581 1 -0.00559833 0.0081061 -0.0144508 0.000423 0.000441693 0.00100922 0.00165067 2650 
233 1 -0.00341234 0.00885502 -0.0146101 0.000423 0.00841442 -0.00267664 0.00454736 2650 
86 1 -0.00507657 0.0109416 -0.0149323 0.000116 -0.0196067 0.0126222 0.000798653 2650 
2969 1 -0.00266653 0.0110031 -0.0148477 0.000656 -0.00667616 0.014076 0.00443217 2650 
2781 1 -0.0057201 0.0113276 -0.0148255 0.000423 0.00977627 0.0105103 0.0120467 2650 
1228 1 -0.00261984 0.0138556 -0.0147032 0.000423 -0.0165339 0.0339414 0.00465399 2650 
2191 1 -0.00232885 0.0134679 -0.0144239 4.2e-05 -0.00764734 0.00298638 -0.00836536 2650 
3644 1 -0.00134668 0.0144362 -0.0146784 0.000423 -0.00424564 0.0328325 0.0133159 2650 
1776 1 -0.00603758 0.0256464 -0.0144728 0.000423 -0.019036 0.131664 0.086751 2650 
2585 1 -0.00190778 0.0277785 -0.014961 0.000116 -0.0221426 0.0759057 0.0070692 2650 
1195 1 -0.0029242 0.0352314 -0.0149903 0.000116 0.0557766 0.0782116 -0.0138054 2650 
2959 1 -0.0675654 -0.0267517 -0.0136607 4.2e-05 -1.19445 -0.597451 6.05364 2650 
3233 1 -0.000442405 -0.00407113 -0.0135406 0.000423 -0.0443521 -0.252316 -1.65933 2650 
4244 1 -0.00344873 -0.00320572 -0.0141313 0.000116 -0.0436806 -0.00994679 0.0125723 2650 
736 1 -0.00870909 -0.00180448 -0.0141339 0.000116 -0.0307431 -0.0170391 0.0144389 2650 
509 1 -0.00785307 -0.000841241 -0.0141778 0.000116 -0.00480979 -0.0076817 0.0108723 2650 
1763 1 -0.00392285 -0.000707995 -0.0137668 0.000656 0.0110536 0.0386342 0.0470271 2650 
1991 1 -0.00849161 0.000169006 -0.0137763 0.000656 -0.0192457 -0.00223252 0.00858771 2650 
2609 1 -0.00847632 0.00121272 -0.013469 0.000116 -0.00705034 0.0126459 0.00789545 2650 
2473 1 -0.00913002 0.00221443 -0.0134654 0.000423 -0.0442117 0.037927 0.0421781 2650 
763 1 -0.00728072 0.00332107 -0.0138099 4.2e-05 -0.0107376 -0.0192397 -0.014763 2650 