ITEM: TIMESTEP
5085858
ITEM: NUMBER OF ATOMS
4372
ITEM: BOX BOUNDS ff ff ff
-0.15 0.15
-0.15 0.06
-0.15 0.15
ITEM: ATOMS id type x y z radius vx vy vz density 
3308 1 -0.0421476 -0.0459472 -0.0540966 0.000423 -3.39005 -0.0206949 2.6345 2650 
3602 1 -0.0564152 -0.0475355 -0.039527 0.000116 -2.16503 0.0821104 3.08209 2650 
418 1 -0.0668836 -0.0572642 -0.0164805 0.000116 -1.8851 -0.273593 7.62177 2650 
3038 1 -0.0675625 -0.0600871 0.013428 0.000116 0.984496 -0.150065 4.99786 2650 
634 1 -0.0666619 -0.0625213 0.0173549 0.000116 1.98132 -0.0717954 7.58237 2650 
4316 1 -0.0645618 -0.0492014 0.0231254 0.000423 1.64127 -0.184033 4.59375 2650 
287 1 -0.0643791 -0.0455044 0.0245012 0.000116 1.46452 0.615479 3.88258 2650 
669 1 -0.0603573 -0.0566292 0.0320459 0.000656 2.28528 0.184269 4.30612 2650 
3331 1 -0.0415346 -0.0613071 0.0545673 0.000423 3.28433 0.0429216 2.48536 2650 
1510 1 -0.000949817 -0.028459 -0.0688429 0.000116 -4.97996 -0.249248 0.102343 2650 
1060 1 -0.00245369 -0.0216443 -0.0688351 0.000116 -4.64349 0.482343 0.1925 2650 
2823 1 -0.000668697 -0.000163612 -0.0688806 0.000116 -3.60502 -0.0630893 0.0468128 2650 
1535 1 -0.000316451 -9.6171e-05 -0.0689568 4.2e-05 -3.39561 -0.083631 0.0273174 2650 
35 1 -0.00221816 -0.0387929 -0.0685343 0.000423 -4.01218 -0.397902 0.170605 2650 
4210 1 -0.0017862 -0.0337132 -0.0685311 0.000423 -5.0643 0.276296 0.220885 2650 
4138 1 -0.00986737 -0.0255897 -0.0681737 0.000116 -4.56221 -0.209718 0.693062 2650 
1136 1 -0.000158996 -0.021738 -0.0685768 0.000423 -6.5906 -0.159851 0.0141919 2650 
2198 1 -0.0106431 -0.0209712 -0.0681317 4.2e-05 -5.20012 1.35323 0.807568 2650 
319 1 -0.00796318 -0.0150834 -0.0684219 0.000116 -3.45271 -0.0655349 0.401437 2650 
4331 1 -0.00817834 -0.00642357 -0.0683971 0.000116 -3.07045 -0.103644 0.38259 2650 
2151 1 -0.00809305 -0.00568979 -0.0684068 0.000116 -4.22837 -0.101969 0.534062 2650 
1135 1 -0.0141575 -0.0378707 -0.0671006 0.000423 -5.1567 0.141085 1.0711 2650 
483 1 -0.0135588 -0.03397 -0.0672252 0.000423 -5.46734 0.0374243 1.08673 2650 
3946 1 -0.0141349 -0.0330655 -0.0674939 4.2e-05 -6.5355 0.451525 1.36741 2650 
358 1 -0.011832 -0.0237355 -0.0675489 0.000423 -4.65316 -0.190535 0.79535 2650 
578 1 -0.0124376 -0.0208526 -0.0674405 0.000423 -5.63868 -0.0253046 1.04102 2650 
1669 1 -0.0124004 -0.0191043 -0.067447 0.000423 -4.52487 -0.130086 0.85874 2650 
3276 1 -0.014542 -0.016959 -0.0673311 0.000116 -6.87875 0.231776 1.48416 2650 
3692 1 -0.0125958 -0.0159208 -0.0677224 0.000116 -4.46024 0.125268 0.84901 2650 
3531 1 -0.0122427 -0.016246 -0.067476 0.000423 -5.72123 -0.0955655 1.026 2650 
2418 1 -0.0122273 -0.000256421 -0.067865 4.2e-05 -4.76693 -0.094754 0.855321 2650 
3850 1 -0.0152523 -0.0374418 -0.0668601 0.000423 -5.18749 0.288621 1.1759 2650 
3622 1 -0.0152443 -0.0360372 -0.0666239 0.000656 -5.34079 0.155591 1.19775 2650 
3041 1 -0.0186041 -0.0322073 -0.0663216 0.000116 -6.09402 -0.666331 1.76074 2650 
2664 1 -0.0168315 -0.0265874 -0.0664798 0.000423 -4.94615 -0.274565 1.21019 2650 
2546 1 -0.0159204 -0.0238703 -0.0667042 0.000423 -4.36418 -0.182512 1.04255 2650 
3647 1 -0.016314 -0.0221261 -0.066609 0.000423 -5.02326 0.203604 1.23215 2650 
2343 1 -0.0165056 -0.0200653 -0.066562 0.000423 -4.63045 -0.319872 1.15762 2650 
3227 1 -0.017107 -0.0194486 -0.0664093 0.000423 -4.62107 -0.167065 1.16734 2650 
2967 1 -0.0163395 -0.0186917 -0.0663637 0.000656 -4.70538 -0.123188 1.13145 2650 
646 1 -0.0159552 -0.00814989 -0.0670103 0.000116 -3.84831 0.0077071 0.953724 2650 
835 1 -0.016703 -0.00778607 -0.0668258 0.000116 -3.6815 -0.050934 0.860371 2650 
3248 1 -0.0178893 -0.0053625 -0.0665201 0.000116 -3.3404 -0.0326758 0.859414 2650 
758 1 -0.0159609 -0.000136895 -0.0670094 0.000116 -4.62724 -0.0318316 1.10179 2650 
1555 1 -0.0200635 -0.0372749 -0.0655756 0.000423 -4.81355 0.293382 1.51575 2650 
2858 1 -0.0176259 -0.0315461 -0.0660302 0.000656 -5.79984 0.0237409 1.54189 2650 
538 1 -0.0191363 -0.0140368 -0.0661689 0.000116 -4.19383 -0.217539 1.24145 2650 
1537 1 -0.0211816 -0.00945967 -0.0656081 4.2e-05 -4.84277 1.84464 1.52682 2650 
2039 1 -0.0193386 -0.00320877 -0.0661132 0.000116 -4.97665 -0.0415298 1.48109 2650 
1563 1 -0.021291 -0.0357188 -0.0651812 0.000423 -4.91385 -0.383974 1.60161 2650 
1877 1 -0.0216644 -0.0264728 -0.0648169 0.000656 -5.39366 -0.12589 1.95822 2650 
1675 1 -0.0209428 -0.0244781 -0.0652988 0.000423 -5.25566 0.039467 1.67093 2650 
1170 1 -0.021832 -0.022198 -0.0653324 0.000116 -4.64599 -0.0874722 1.52736 2650 
838 1 -0.0233221 -0.00727004 -0.0647901 0.000116 -3.11279 -0.148792 1.01295 2650 
759 1 -0.0221964 -0.0053074 -0.0652101 0.000116 -4.6718 0.250606 1.53333 2650 
3642 1 -0.0230545 -0.0262527 -0.0645654 0.000423 -4.76662 0.0462723 1.62615 2650 
940 1 -0.0240166 -0.0210757 -0.0645616 0.000116 -4.23323 -0.0804854 1.56861 2650 
3619 1 -0.024708 -0.000950602 -0.0643791 4.2e-05 -4.56111 -0.147239 1.77926 2650 
1841 1 -0.0259367 -0.0373363 -0.0638115 0.000116 -6.16018 -0.17866 2.53241 2650 
175 1 -0.0260955 -0.0311522 -0.0637456 0.000116 -4.86258 0.533866 2.15535 2650 
3583 1 -0.026146 -0.0225931 -0.0637281 0.000116 -5.31959 -0.267195 2.26449 2650 
2605 1 -0.0263632 -0.00617703 -0.0636388 0.000116 -3.72286 0.172695 1.50941 2650 
1343 1 -0.0254373 -0.00467256 -0.0636796 0.000423 -3.42978 -0.0481659 1.44 2650 
661 1 -0.0271756 -0.037335 -0.0627101 0.000656 -5.06099 0.0771913 2.18499 2650 
1104 1 -0.0266965 -0.026338 -0.0629155 0.000656 -4.80782 0.0370955 2.03063 2650 
121 1 -0.0265483 -0.0221515 -0.0629783 0.000656 -4.83684 -0.0136947 2.06692 2650 
3366 1 -0.0290463 -0.0144779 -0.0624601 0.000116 -5.27434 0.296973 2.44962 2650 
2964 1 -0.0280035 -8.48207e-05 -0.0630159 4.2e-05 -4.18104 0.0600685 1.85785 2650 
633 1 -0.0300175 -0.0236282 -0.0619994 0.000116 -3.6278 -0.367728 1.73985 2650 
1363 1 -0.0298775 -0.0149218 -0.061727 0.000423 -3.1547 -0.433504 1.5316 2650 
2738 1 -0.0324929 -0.011752 -0.0608232 4.2e-05 -2.87375 -0.267763 1.52737 2650 
1282 1 -0.0319885 -0.0113461 -0.0610063 0.000116 -3.0944 -0.182596 1.61534 2650 
1878 1 -0.0317451 -0.0370972 -0.0605267 0.000656 -4.93217 0.0752025 2.56879 2650 
636 1 -0.0335096 -0.0189929 -0.0601837 0.000116 -3.27931 -0.119243 1.82997 2650 
3586 1 -0.0335459 -0.0139168 -0.060164 0.000116 -3.5153 -0.0353351 1.96696 2650 
486 1 -0.0337878 -0.0237196 -0.0596769 0.000423 -4.25255 -0.21573 2.39271 2650 
410 1 -0.0354345 -0.0182869 -0.0590707 0.000116 -4.48142 -0.981243 2.67037 2650 
3391 1 -0.0357695 -0.0177063 -0.0589551 4.2e-05 -3.12239 -0.0260701 1.87837 2650 
3252 1 -0.0371306 -0.0204623 -0.0580207 0.000116 -3.96332 0.302975 2.54769 2650 
1207 1 -0.0376066 -0.012764 -0.057801 4.2e-05 -3.3552 0.558024 2.20275 2650 
2165 1 -0.0369679 -0.011644 -0.0581245 0.000116 -5.61232 0.415325 3.57196 2650 
632 1 -0.0379001 -0.0215581 -0.0575198 0.000116 -4.17801 0.104901 2.74761 2650 
935 1 -0.0376252 -0.00746748 -0.0573355 0.000423 -3.92512 -0.266808 2.5328 2650 
1175 1 -0.0390367 -0.0326047 -0.0567552 0.000116 -2.69218 -0.741093 1.81271 2650 
892 1 -0.040104 -0.0194155 -0.0553414 0.000656 -4.62963 0.0345261 3.33549 2650 
2835 1 -0.0414874 -0.0355304 -0.0549875 0.000116 -5.54128 0.37427 4.1991 2650 
1870 1 -0.0427347 -0.018774 -0.0541186 4.2e-05 -2.95021 -0.123835 2.30198 2650 
1325 1 -0.0435926 -0.0153883 -0.0526404 0.000656 -3.65883 -0.31419 3.082 2650 
1475 1 -0.0454344 -0.0215691 -0.0513659 0.000423 -3.64119 0.0489153 3.20981 2650 
2672 1 -0.0448952 -0.00517655 -0.0518191 0.000423 -2.70751 -0.0972044 2.33183 2650 
2576 1 -0.0457659 -0.0315938 -0.0510545 0.000423 -3.80822 0.254569 3.50858 2650 
1560 1 -0.0463006 -0.0221667 -0.0505877 0.000423 -3.78414 0.0357218 3.42186 2650 
811 1 -0.0455836 -0.0224058 -0.0512291 0.000423 -3.7381 0.0536192 3.31562 2650 
3543 1 -0.0462475 -0.0209921 -0.0506362 0.000423 -3.61598 -0.0271006 3.30277 2650 
4372 1 -0.0477154 -0.0246024 -0.0497834 4.2e-05 -3.20315 -0.235265 3.06956 2650 
2663 1 -0.0468788 -0.0224754 -0.0500528 0.000423 -3.70861 -0.0338298 3.46439 2650 
4106 1 -0.0468012 -0.0215632 -0.0501254 0.000423 -3.54355 -0.157419 3.34501 2650 
2066 1 -0.0473971 -0.0211863 -0.0499853 0.000116 -3.56058 0.0194451 3.39083 2650 
375 1 -0.0468343 -0.0137051 -0.0500945 0.000423 -3.34692 0.492314 3.13535 2650 
601 1 -0.047609 -0.0119226 -0.0493585 0.000423 -4.08086 -0.020789 3.98212 2650 
333 1 -0.0472066 -0.00104156 -0.0494227 0.000656 -4.55212 -0.038349 4.37478 2650 
406 1 -0.0491089 -0.0207086 -0.0483046 0.000116 -3.32094 0.200504 3.35785 2650 
3337 1 -0.0489422 -0.00699625 -0.0480369 0.000423 -2.22225 -0.113376 2.2393 2650 
1794 1 -0.0503166 -0.0383306 -0.0465953 0.000423 -3.26971 0.0171791 3.51493 2650 
4366 1 -0.0502435 -0.017929 -0.047123 0.000116 -3.53435 -0.361563 3.78725 2650 
4373 1 -0.0505379 -0.00454337 -0.0469158 4.2e-05 -2.23031 -0.0284651 2.42566 2650 
2057 1 -0.0504246 -0.00362825 -0.0469293 0.000116 -3.44126 0.433558 3.71396 2650 
3874 1 -0.0509004 -0.016771 -0.0459568 0.000423 -3.33386 -0.324195 3.69259 2650 
2846 1 -0.0517342 -0.0210958 -0.0455932 4.2e-05 -4.08361 0.689369 4.62779 2650 
259 1 -0.0525696 -0.0082007 -0.0440393 0.000423 -2.99764 0.114735 3.60245 2650 
518 1 -0.0514828 -0.00707629 -0.0434439 0.000116 -3.84244 -0.232715 0.681023 2650 
3426 1 -0.0533809 -0.0394362 -0.04305 0.000423 -2.49664 -1.30282 3.10567 2650 
3502 1 -0.00359006 -0.00379908 -0.0430343 4.2e-05 -0.52945 -0.0789622 -6.34655 2650 
2083 1 -0.0540539 -0.00223821 -0.0428175 4.2e-05 -2.09016 0.98793 2.6278 2650 
3960 1 -0.0279502 -0.00871286 -0.0423434 0.000423 -4.15787 -0.466133 -6.29609 2650 
1056 1 -0.0551685 -0.043768 -0.0412482 0.000116 -2.76609 0.393919 3.76392 2650 
2386 1 -0.0547813 -0.0160242 -0.0417609 0.000116 -2.18081 -0.150814 2.89349 2650 
786 1 -0.0546161 -0.0147493 -0.0414724 0.000423 -2.28059 -0.539626 2.97665 2650 
2430 1 -0.054925 -0.0282142 -0.0406764 0.000656 -3.09005 0.00495179 4.26715 2650 
3024 1 -0.0556714 -0.0225458 -0.0405674 0.000116 -2.07813 -0.531925 2.86228 2650 
2818 1 -0.0554664 -0.0211815 -0.0408468 0.000116 -3.06371 0.0143146 4.16747 2650 
1943 1 -0.0557807 -0.0197582 -0.0404165 0.000116 -3.41178 0.974973 4.73583 2650 
4309 1 -0.0553628 -0.0204584 -0.0404724 0.000423 -3.58269 -0.00087411 4.91314 2650 
3786 1 -0.0559998 -0.016333 -0.0401107 0.000116 -3.07735 0.518706 4.27987 2650 
3385 1 -0.0569312 -0.0255508 -0.0387799 0.000116 -2.88706 0.448865 4.23008 2650 
3066 1 -0.0567586 -0.0180259 -0.0391615 4.2e-05 -3.72096 -0.257188 5.44522 2650 
27 1 -0.0567711 -0.0282323 -0.0384714 0.000423 -2.77013 0.0583791 4.13306 2650 
476 1 -0.0573141 -0.0235863 -0.0376575 0.000423 -2.73612 0.186512 4.18993 2650 
2800 1 -0.0572271 -0.0202618 -0.0377896 0.000423 -3.15282 0.255773 4.7962 2650 
2545 1 -0.0578232 -0.00950701 -0.0368608 0.000423 -2.94464 0.273197 4.71351 2650 
1312 1 -0.0588893 -0.0148384 -0.0358764 4.2e-05 -2.04251 0.44637 3.22732 2650 
1945 1 -0.0593446 -0.0100514 -0.0349702 0.000116 -1.63596 -0.137231 3.08865 2650 
1068 1 -0.0592126 -0.00889175 -0.0351798 0.000116 -2.79484 0.36108 4.80768 2650 
3265 1 -0.0590952 -0.00153026 -0.0353935 0.000116 -3.18733 -0.12039 5.28442 2650 
1957 1 -0.0595758 -0.00759886 -0.0345802 0.000116 -1.75603 0.134363 3.1156 2650 
833 1 -0.0603956 -0.0309303 -0.0331267 0.000116 -2.32897 -0.310146 4.19779 2650 
2002 1 -0.0600505 -0.0173984 -0.0331095 0.000423 -2.68669 0.228169 4.91166 2650 
245 1 -0.0601847 -0.018397 -0.0328722 0.000423 -2.62804 -0.00826303 4.72054 2650 
3134 1 -0.0606383 -0.0158126 -0.0326679 0.000116 -1.67866 0.0361537 3.32934 2650 
1002 1 -0.0604712 -0.0187891 -0.0318484 0.000656 -2.49114 -0.0730566 4.79594 2650 
1922 1 -0.0605542 -0.00994325 -0.0321696 0.000423 -1.89812 0.171023 3.88011 2650 
1387 1 -0.0613596 -0.0230678 -0.0313022 0.000116 -2.07261 0.16291 4.15361 2650 
3527 1 -0.0611892 -0.0184397 -0.0309652 0.000423 -2.05362 -0.102136 4.07566 2650 
4116 1 -0.0618779 -0.00678034 -0.0302677 0.000116 -1.46868 -0.155229 3.0185 2650 
2820 1 -6.78086e-05 -0.0073651 -0.0688837 0.000116 -4.88847 0.50684 -0.00935991 2650 
2000 1 -0.0619289 -0.0168221 -0.0294572 0.000423 -1.69447 -0.0487983 3.61143 2650 
1721 1 -0.0628503 -0.0241998 -0.0281746 0.000116 -1.6355 -0.426059 3.65422 2650 
3540 1 -0.0626808 -0.0222777 -0.0278181 0.000423 -1.96929 0.125387 4.45283 2650 
3650 1 -0.06296 -0.0342825 -0.0271781 0.000423 -2.15908 0.214935 5.47853 2650 
2641 1 -0.0628784 -0.0272658 -0.0267604 0.000656 -2.19216 -0.0822089 4.8928 2650 
2112 1 -0.0629401 -0.0238126 -0.0272287 0.000423 -1.63984 -0.418022 3.74485 2650 
235 1 -0.0634463 -0.0154194 -0.0260295 0.000423 -1.9366 -0.327611 4.70245 2650 
3904 1 -0.0635557 -0.00813693 -0.0265651 0.000116 -1.34012 -0.256352 3.15989 2650 
2634 1 -0.0640362 -0.0148221 -0.0255848 4.2e-05 -1.21797 -0.35028 3.02806 2650 
2875 1 -0.00679271 -0.00522129 -0.0259523 0.000423 -0.825419 -0.278124 -3.20712 2650 
1383 1 -0.0641543 -0.0294295 -0.0250748 0.000116 -1.82363 0.567279 4.49783 2650 
1587 1 -0.0640244 -0.0172 -0.024571 0.000423 -1.83576 0.142206 4.75125 2650 
1630 1 -0.0641101 -0.0141173 -0.0251974 0.000116 -1.20473 -0.30413 3.06711 2650 
4095 1 -0.0644056 -0.0207493 -0.0235577 0.000423 -1.86745 -0.160822 5.13599 2650 
854 1 -0.0651605 -0.0376007 -0.0223396 0.000116 -1.50529 -0.195561 4.49594 2650 
2102 1 -0.0647315 -0.0294829 -0.0219254 0.000656 -1.93311 0.153162 5.80303 2650 
955 1 -0.0654958 -0.0102511 -0.0213406 0.000116 -0.935007 -0.335683 2.95083 2650 
2670 1 -0.065451 -0.0241744 -0.0204732 0.000423 -1.54961 0.195806 4.9471 2650 
14 1 -0.0654173 -0.0228113 -0.0205778 0.000423 -1.36257 -0.0346538 4.33259 2650 
3266 1 -0.0657646 -0.016676 -0.0204945 0.000116 -1.36483 0.344537 4.32756 2650 
2702 1 -0.065716 -0.00779994 -0.020651 0.000116 -1.55514 0.388295 4.93779 2650 
2700 1 -0.0661433 -0.0166045 -0.019237 0.000116 -1.08621 0.0328594 3.66263 2650 
3652 1 -0.0658823 -0.015757 -0.0190397 0.000423 -1.45904 0.298983 5.06683 2650 
4177 1 -0.066116 -0.0297978 -0.018212 0.000423 -1.21571 0.357505 4.36252 2650 
1016 1 -0.0662157 -0.0344393 -0.0178451 0.000423 -1.30368 0.0560825 4.79458 2650 
378 1 -0.0663288 -0.0144791 -0.0174212 0.000423 -1.15093 -0.130954 4.38925 2650 
146 1 -0.0664315 -0.0195268 -0.0170226 0.000423 -1.04683 -0.397423 4.11056 2650 
2959 1 -0.0668649 -0.0099487 -0.0168626 4.2e-05 -0.825937 -0.191468 3.21107 2650 
606 1 -0.000183 0.00344768 -0.016592 0.000116 0 -0.011753 0 2650 
188 1 -0.000312854 0.00781122 -0.0168352 0.000116 -0.0156058 0.0716121 0.00169132 2650 
192 1 -0.000150111 0.00797586 -0.0168052 0.000116 0.0466762 0.0258322 0.0491671 2650 
2713 1 -0.000763 0.0104187 -0.016767 0.000116 0 -0.011753 0 2650 
736 1 -0.003429 0.00137268 -0.016474 0.000116 0 -0.011753 0 2650 
150 1 -0.00253048 0.000918264 -0.0162433 0.000423 -0.00913371 0.00501626 0.00203877 2650 
676 1 -0.0022608 0.00197055 -0.0161854 0.000423 -0.0135783 -0.00452781 0.0177143 2650 
1679 1 -0.00363141 0.00278143 -0.0159167 0.000423 -0.000267589 -0.00703629 -0.00433961 2650 
2013 1 -0.00279192 0.00299353 -0.016162 0.000423 0.00298908 -0.00809762 0.00112683 2650 
3589 1 -0.00487484 0.00398534 -0.0159134 0.000116 0.155503 0.064687 -0.0402711 2650 
2301 1 -0.004222 0.00522068 -0.016305 4.2e-05 0 -0.011753 0 2650 
3121 1 -0.00392898 0.00503473 -0.0159658 0.000423 0.0295457 0.00139416 -0.0105356 2650 
302 1 -0.000731082 0.00598969 -0.0165188 0.000116 0.0171051 0.0203877 0.0103663 2650 
1698 1 -6.39119e-07 0.00574802 -0.016502 0.000423 0.0411176 0.0348153 -1.85855e-05 2650 
1219 1 -0.000983493 0.00647822 -0.0159521 0.000656 0.0133734 0.0239605 0.00857101 2650 
3546 1 -0.00012819 0.00729555 -0.0161433 0.000423 0.025704 0.0149609 0.00360255 2650 
3934 1 -0.001977 0.00820968 -0.016218 0.000116 0 -0.011753 0 2650 
568 1 -0.00428601 0.0158968 -0.0159414 0.000423 0.0646767 0.0324089 0.0265592 2650 
913 1 -0.000693053 0.0221225 -0.0161633 0.000423 -0.0131935 0.0940792 0.0439723 2650 
1357 1 -0.00440583 0.0434986 -0.0158315 0.000423 0.0681058 0.285169 -0.0155587 2650 
2179 1 -0.00445548 0.0493896 -0.0160897 0.000116 -0.88911 -0.485312 0.169117 2650 
1372 1 -0.0668028 -0.0345491 -0.0155024 0.000423 -1.08873 -0.352148 4.74146 2650 
1912 1 -0.0668643 -0.0189529 -0.0152338 0.000423 -1.01173 -0.0734252 4.47216 2650 
3734 1 -0.0666277 -0.00821238 -0.0152322 0.000656 -1.09627 -0.199356 4.80274 2650 
1991 1 -0.00472829 0.000576398 -0.0154509 0.000656 -0.0197706 -0.00214867 0.00868857 2650 
2922 1 -0.00617014 0.00184003 -0.015343 0.000116 -0.0492521 -0.0166623 -0.0574868 2650 
3239 1 -0.00270147 0.00163473 -0.0156293 0.000116 -0.00859694 0.0134975 -0.018679 2650 
2399 1 -0.002418 0.00366168 -0.015541 0.000116 0 -0.011753 0 2650 
2283 1 -0.00137813 0.00412195 -0.0150144 0.000116 -0.0318858 -0.01081 -0.0228231 2650 
2313 1 -0.00507361 0.00496703 -0.0153966 0.000656 0.00856952 0.0288131 0.00982472 2650 
2438 1 -0.00575502 0.00674999 -0.0150248 0.000423 0.00192492 -0.00355692 -0.0258764 2650 
978 1 -0.00533223 0.00692824 -0.0153255 0.000116 0.015313 -0.00383775 -0.0151954 2650 
1620 1 -0.00443176 0.00679186 -0.0155444 0.000116 0.0529387 0.0514306 -0.00503745 2650 
2969 1 -0.00125744 0.00745769 -0.0150968 0.000656 -0.00214235 0.0311769 0.000161156 2650 
1483 1 -0.00015545 0.00805081 -0.0151467 0.000423 -0.023592 0.00968138 -0.006304 2650 
86 1 -0.002064 0.00946568 -0.015055 0.000116 0 -0.011753 0 2650 
3177 1 -0.001068 0.00926568 -0.015412 4.2e-05 0 -0.011753 0 2650 
3830 1 -0.006879 0.00976168 -0.015411 4.2e-05 0 -0.011753 0 2650 
1617 1 -0.00428682 0.00951163 -0.015221 0.000116 0.0304875 0.00968505 -0.0492471 2650 
371 1 -0.000476187 0.0101325 -0.0151157 0.000423 0.000724313 -0.00601752 -0.0061741 2650 
938 1 -0.000869 0.0106717 -0.015416 0.000116 0 -0.011753 0 2650 
142 1 -0.00251895 0.0222885 -0.0154138 0.000423 -0.0926872 0.0526713 -0.0970482 2650 
3196 1 -0.00719018 -0.00344467 -0.0148871 0.000423 0.205836 -0.274963 0.204959 2650 
1053 1 -0.007469 -0.000180321 -0.014946 0.000116 0 -0.011753 0 2650 
2827 1 -0.00457416 -0.000619297 -0.0142967 0.000116 -0.0201753 -0.0226203 0.0017234 2650 
623 1 -0.00681653 0.000706644 -0.0146489 0.000116 -0.00477071 -0.00938024 -0.0420845 2650 
2332 1 -0.00401759 0.000338348 -0.0144549 0.000423 -0.0114447 -0.00779769 0.00753018 2650 
2817 1 -0.00206262 7.58432e-05 -0.0145758 0.000116 0.0100645 -0.056664 0.00630574 2650 
222 1 -0.00189431 0.000926744 -0.0149547 0.000656 -0.00713779 -0.040298 -0.0148088 2650 
3637 1 -0.00355718 0.00187893 -0.0148571 0.000423 -0.00927015 0.0142513 -0.0137177 2650 
220 1 -0.003649 0.00272468 -0.014897 4.2e-05 0 -0.011753 0 2650 
234 1 -0.00192577 0.00421045 -0.0142705 0.000423 0.0351287 -0.0167305 0.0264562 2650 
1618 1 -0.0078328 0.00613967 -0.014871 0.000116 -0.0222988 0.059375 0.0201275 2650 
4296 1 -0.00260015 0.00560401 -0.0144674 0.000423 -0.0431702 0.0421068 0.0473826 2650 
3365 1 -0.002315 0.00608768 -0.014552 0.000116 0 -0.011753 0 2650 
4227 1 -0.000119119 0.00738887 -0.0142842 0.000116 -0.00921828 -0.0161692 0.0154311 2650 
4190 1 -0.00809624 0.00856393 -0.0143566 0.000423 -0.009489 7.8582e-05 0.00632979 2650 
508 1 -0.00802397 0.00797787 -0.0147191 0.000116 -0.0609474 0.0130298 0.0475554 2650 
3515 1 -0.0069303 0.00805975 -0.0142405 0.000656 -0.00618896 -0.0090925 0.00826116 2650 
581 1 -0.00558987 0.00893136 -0.0142326 0.000423 -0.000469419 -0.0102297 -0.00424824 2650 
1228 1 -0.00140363 0.0095333 -0.0149974 0.000423 -0.00123313 -0.0118667 -0.000623591 2650 
3669 1 -0.000315081 0.0108491 -0.0145585 0.000423 0.00220454 -0.00743356 -0.00383523 2650 
3216 1 -0.00447355 0.0233906 -0.0149826 0.000423 -0.00544148 0.107266 0.0543995 2650 
2467 1 -0.00192018 0.0282462 -0.0145184 0.000423 0.0301791 0.103437 0.0421276 2650 
2806 1 -0.0675364 -0.0228391 -0.0135581 0.000116 -0.841691 0.326723 4.20821 2650 
2690 1 -0.0672425 -0.0190213 -0.0134656 0.000423 -0.708266 -0.41167 3.44137 2650 
800 1 -0.00763807 -0.00207989 -0.0136077 0.000423 0.0734004 0.0256016 0.0971795 2650 
3153 1 -0.000619632 -0.00186311 -0.0135894 0.000116 -0.0842498 -0.0374178 0.0430189 2650 
3733 1 -0.00590861 0.000702837 -0.0141573 0.000656 -0.024164 0.0138988 0.0212093 2650 
3587 1 -0.0058082 0.00418383 -0.0139782 0.000116 0.00461134 0.0023037 -0.00278329 2650 
3322 1 -0.00386087 0.00430551 -0.013479 0.000423 0.0155165 0.0110838 0.0251988 2650 
4165 1 -0.0051671 0.00488968 -0.0139524 0.000656 -0.00035358 -0.0321692 0.0084674 2650 
2596 1 -0.00847303 0.00604605 -0.0136909 0.000116 -0.0442582 -0.0431064 0.0384975 2650 
104 1 -0.00282591 0.00553838 -0.0134387 4.2e-05 -0.00674979 0.0150481 0.0116551 2650 
3950 1 -0.00637051 0.00676743 -0.0140478 0.000656 -0.0401516 -0.0144037 -0.0334096 2650 
1584 1 -0.00126999 0.00664352 -0.0138811 0.000423 -0.00963006 0.0395817 0.04039 2650 
2322 1 -0.00803493 0.00748999 -0.013685 0.000656 -0.0108707 -0.010103 0.00337555 2650 
1288 1 -0.002467 0.00739068 -0.014044 0.000116 0 -0.011753 0 2650 
2222 1 -0.000300402 0.00816496 -0.0141391 0.000423 -0.00549102 -0.00568171 -0.00117535 2650 
963 1 -0.00493119 0.008967 -0.0141116 0.000116 -0.0353923 -0.062899 -0.0407773 2650 
1986 1 -0.00311902 0.00943328 -0.0140936 0.000656 0.00762539 0.0149956 0.0116892 2650 
1476 1 -0.006941 0.0101907 -0.013435 0.000423 0 -0.011753 0 2650 
233 1 -0.0047874 0.0100488 -0.0137537 0.000423 0.000342891 -0.00976437 -0.0328705 2650 
4257 1 -0.00848984 0.0110527 -0.014165 0.000116 0.0101268 -0.0416798 0.0036163 2650 
1409 1 -0.00044 0.0111707 -0.013868 0.000116 0 -0.011753 0 2650 
3644 1 -0.000818294 0.0122177 -0.0140344 0.000423 -0.00432743 0.00711996 -0.0325914 2650 
3632 1 -0.00915009 0.0127843 -0.0137396 0.000423 -0.0221559 0.000444483 0.0133776 2650 
3932 1 -0.0053485 0.019674 -0.0137657 0.000116 0.03152 0.0411719 0.0597923 2650 
1544 1 -0.0670912 -0.032841 -0.0130328 0.000656 -1.12176 -0.132785 5.71789 2650 
330 1 -0.00641263 -0.00275211 -0.0131967 4.2e-05 -0.0696064 -0.0147686 0.0345761 2650 
4097 1 -0.00858031 -0.00228113 -0.0132522 0.000423 -0.0116536 0.00229875 0.0371095 2650 
1468 1 -0.00403344 -0.00120713 -0.0128841 0.000423 -0.0197001 -0.0470204 -0.0326717 2650 
509 1 -0.00722977 -0.000609293 -0.0133581 0.000116 -0.00521486 0.00944493 -0.0325939 2650 
4126 1 -0.0041301 -7.29075e-05 -0.0133621 0.000116 -0.0261531 0.0084042 0.00402279 2650 
3551 1 -0.00604134 0.000111663 -0.0131705 0.000423 -0.0216652 0.0127841 -0.0071385 2650 
541 1 -0.00602775 0.000521715 -0.0128797 4.2e-05 -0.0143735 0.00954058 0.00936495 2650 
2525 1 -0.004063 0.00161768 -0.013231 4.2e-05 0 -0.011753 0 2650 
2609 1 -0.00886 0.00315768 -0.013248 0.000116 0 -0.011753 0 2650 
2619 1 -0.005851 0.00243368 -0.012854 0.000116 0 -0.011753 0 2650 
3880 1 -0.010277 0.00334968 -0.012913 0.000423 0 -0.011753 0 2650 
3645 1 -0.0051074 0.00339431 -0.0128813 0.000423 -0.0357151 -0.0039173 0.0164321 2650 
3917 1 -0.003984 0.00391868 -0.012703 0.000116 0 -0.011753 0 2650 
1171 1 -0.00832221 0.00462592 -0.0133078 0.000116 -0.0146011 -0.0168948 -0.0399555 2650 
2918 1 -0.00757 0.00450868 -0.012948 0.000116 0 -0.011753 0 2650 
450 1 -0.00666395 0.00442504 -0.0133788 0.000656 0.0113486 0.0469175 0.00740751 2650 
2059 1 -0.003583 0.00412768 -0.012756 0.000116 0 -0.011753 0 2650 
3380 1 -0.002208 0.00463169 -0.0127905 0.000116 -0.00133046 -0.0120531 0.0302183 2650 
2512 1 -0.0097433 0.00478105 -0.0131953 0.000116 0.002514 -0.0160812 -0.0313025 2650 
2219 1 -0.00422612 0.0055068 -0.012715 0.000423 0.0573797 0.046564 0.0166916 2650 
4078 1 -0.00867088 0.00646524 -0.0127374 0.000423 -0.0196946 -0.00953845 0.00130892 2650 
2913 1 -0.00703706 0.00706056 -0.0129501 0.000116 -0.028239 -0.0119827 -0.0130286 2650 
1427 1 -0.002948 0.00645868 -0.013376 4.2e-05 0 -0.011753 0 2650 
1237 1 -0.0103656 0.00766751 -0.0128933 0.000423 0.0229951 -0.00489968 0.00418074 2650 
3259 1 -0.00853712 0.00773689 -0.0131312 0.000116 -0.0089878 -0.00810535 0.00538998 2650 
1519 1 -0.00206736 0.00741462 -0.0132099 0.000116 -0.0494896 0.0341374 0.0501115 2650 
1795 1 -0.0087723 0.00845751 -0.0129606 0.000423 0.00165908 -0.0118589 -0.000959055 2650 
1769 1 -0.00609872 0.00864974 -0.0132786 0.000656 -0.0180455 -0.00259761 -0.00548469 2650 
1250 1 -0.00764318 0.00910273 -0.0127666 0.000423 -0.0109693 -0.0170514 -0.0143142 2650 
205 1 -0.000744 0.00917468 -0.01334 0.000116 0 -0.011753 0 2650 
2483 1 -0.00911782 0.00980929 -0.0133299 0.000116 0.00258646 -0.0218162 0.0129531 2650 
1827 1 -0.0054654 0.00953536 -0.0131474 0.000116 -0.0556457 -0.0263815 -0.0392498 2650 
949 1 -0.00617587 0.0104644 -0.0126418 0.000116 -0.0176518 0.0277962 -0.00593252 2650 
3007 1 -0.000961596 0.0115325 -0.0132272 0.000423 -0.0135196 -0.00505473 -0.0280609 2650 
1775 1 -0.00822667 0.0119171 -0.0130373 0.000423 -7.29146e-05 -0.011186 -0.000346901 2650 
478 1 -0.00682558 0.0146654 -0.0129554 0.000423 -0.0255767 0.012458 -0.051203 2650 
675 1 -0.00492721 0.0202365 -0.0126582 0.000423 -0.0171714 0.0807922 0.0289201 2650 
2361 1 -0.0358397 -0.0118315 -0.0124028 0.000423 -5.04408 -0.974927 -1.8283 2650 
2413 1 -0.00790679 -0.00246475 -0.0119666 4.2e-05 -0.0826713 -0.0311639 0.0536157 2650 
2468 1 -0.003167 -0.00198432 -0.012131 0.000423 0 -0.011753 0 2650 
545 1 -0.002328 -0.00235732 -0.012432 4.2e-05 0 -0.011753 0 2650 
1763 1 -0.001143 -0.00169632 -0.012442 0.000656 0 -0.011753 0 2650 
2645 1 -0.00539692 -0.000981332 -0.0124616 0.000656 -0.0339684 -0.013594 0.0452752 2650 
3191 1 -0.00680764 -0.000343254 -0.0125013 0.000656 -0.0168446 0.00288294 -0.00297772 2650 
1422 1 -0.003881 0.000149679 -0.012349 4.2e-05 0 -0.011753 0 2650 
388 1 -0.00763614 0.00108799 -0.0124185 0.000116 0.0212466 0.0335067 0.0250458 2650 
3201 1 -0.00616993 0.000977966 -0.0125125 0.000423 -0.00608722 0.0216696 0.0089772 2650 
1799 1 -0.00323189 0.000959091 -0.0120577 0.000423 7.10678e-05 -0.0118308 4.63239e-05 2650 
3956 1 -0.00902755 0.00181418 -0.0123017 0.000656 -0.000640959 -0.0104529 -0.000368355 2650 
3389 1 -0.010415 0.00241568 -0.012026 0.000116 0 -0.011753 0 2650 
1125 1 -0.00526767 0.00309279 -0.0120469 0.000423 -0.0456429 0.0111646 0.0284182 2650 
2957 1 -0.0020263 0.00393185 -0.0122569 4.2e-05 0.0205169 0.0248349 -0.000218849 2650 
411 1 -0.0103176 0.00466197 -0.0120889 0.000116 -0.00787832 -0.00657823 -8.20909e-05 2650 
3826 1 -0.009208 0.00431068 -0.012552 0.000116 0 -0.011753 0 2650 
1032 1 -0.00740577 0.0041335 -0.012404 0.000423 -0.0176094 -0.00837615 -0.056411 2650 
2912 1 -0.00604286 0.004541 -0.0126231 0.000116 0.0152844 0.00719243 -0.0503855 2650 
2194 1 -0.00237498 0.00463575 -0.0125125 4.2e-05 0.00491046 0.00111596 0.00228026 2650 
708 1 -0.00273283 0.00461377 -0.0120934 0.000423 -0.00318183 -0.00599768 -0.010405 2650 
3316 1 -0.008979 0.00506368 -0.012376 0.000423 0 -0.011753 0 2650 
1261 1 -0.0074464 0.00498089 -0.0124103 0.000423 -0.000148786 -0.00207045 -0.0014312 2650 
3362 1 -0.0026694 0.0051451 -0.012229 0.000116 0.000350619 -0.00253681 -0.00404217 2650 
4310 1 -0.00041284 0.00550656 -0.0125505 0.000423 0.011252 0.0218425 0.101284 2650 
3446 1 -0.002592 0.00607068 -0.012627 0.000423 0 -0.011753 0 2650 
3030 1 -0.001189 0.00657368 -0.012596 0.000116 0 -0.011753 0 2650 
4318 1 -0.00852387 0.00778383 -0.0123704 0.000423 -0.00589465 -0.00768269 0.00318441 2650 
3847 1 -0.00968844 0.00861155 -0.0124106 0.000656 0.00296919 -0.00343098 -0.00030598 2650 
1495 1 -0.004483 0.00804168 -0.012591 0.000116 0 -0.011753 0 2650 
3684 1 -0.00437471 0.00843471 -0.0123106 0.000116 0.00413104 -0.0230128 -0.00941473 2650 
4179 1 -0.00702573 0.00922092 -0.0120328 0.000423 -0.00767678 -0.0221048 -0.00852388 2650 
3173 1 -0.004958 0.00870268 -0.012321 4.2e-05 0 -0.011753 0 2650 
2630 1 -0.001036 0.00891068 -0.012074 4.2e-05 0 -0.011753 0 2650 
4002 1 -0.000443 0.00873468 -0.01223 0.000116 0 -0.011753 0 2650 
1423 1 -0.00145 0.0103907 -0.012526 4.2e-05 0 -0.011753 0 2650 
3106 1 -0.00672446 0.0115079 -0.0120581 0.000423 -0.042507 0.0242048 -0.0146805 2650 
959 1 -0.00621741 0.0115567 -0.01243 0.000116 -0.0723779 0.0623805 -0.0339909 2650 
1802 1 -0.00420811 0.0124637 -0.0118977 0.000423 0.00500259 -0.000364755 -0.0111755 2650 
2205 1 -0.00508477 0.0132751 -0.0119822 0.000656 -0.00206311 0.000112593 -0.00429342 2650 
3798 1 -0.0030603 0.013825 -0.0119252 0.000116 -0.0483102 0.213285 0.0286816 2650 
1143 1 -0.0009263 0.0142965 -0.0124289 0.000423 0.0070315 0.0110531 -0.00616027 2650 
1979 1 -0.00691842 0.0221408 -0.0124332 4.2e-05 -0.060479 0.115177 0.0648972 2650 
2109 1 -0.00556361 0.0223013 -0.0120197 0.000423 -0.0277695 0.107912 0.0279852 2650 
3573 1 -0.00881634 0.0366056 -0.0125457 0.000116 0.196545 -0.226716 -0.153339 2650 
1647 1 -0.0680439 -0.0245017 -0.0111884 4.2e-05 -1.06704 -0.505762 6.44016 2650 
3505 1 -0.006952 -0.00268832 -0.011235 4.2e-05 0 -0.011753 0 2650 
1022 1 -0.002093 -0.00281832 -0.011454 0.000423 0 -0.011753 0 2650 
2172 1 -0.00933666 -0.00168021 -0.011683 0.000116 0.0554355 0.00150652 -0.0523356 2650 
756 1 -0.0067616 -0.00122108 -0.011349 0.000116 0.0341966 0.124646 -0.134369 2650 
440 1 -0.00061 -0.00138632 -0.011485 4.2e-05 0 -0.011753 0 2650 
2127 1 -0.0118106 -0.000231986 -0.0113911 0.000423 -0.129436 0.0152094 0.099489 2650 
2939 1 -0.00932745 0.000396024 -0.0115395 0.000116 -0.00341769 -0.0275913 0.0148239 2650 
3200 1 -0.00800753 0.000400839 -0.0116228 0.000423 -0.0275514 -0.0115593 0.0194145 2650 
3778 1 -0.00594017 0.0011759 -0.0114575 0.000423 -0.0441284 0.0265152 0.0540744 2650 
1063 1 -0.009531 0.00233968 -0.011683 0.000116 0 -0.011753 0 2650 
3894 1 -0.005583 0.00178468 -0.011098 0.000116 0 -0.011753 0 2650 
3477 1 -0.0105595 0.00291421 -0.0112052 0.000116 0.0616358 -0.0139442 -0.0219299 2650 
1595 1 -0.00782806 0.00287515 -0.0116136 0.000423 -0.0081111 0.00198047 0.0261702 2650 
2279 1 -0.0118421 0.0032245 -0.0111985 0.000116 -0.0158908 0.0502304 0.00803902 2650 
2285 1 -0.0117319 0.00376873 -0.0116805 0.000116 -0.013552 0.00856226 -0.0313614 2650 
1192 1 -0.00479449 0.00327315 -0.0114925 0.000116 -0.0160738 0.0171838 -0.0228619 2650 
2294 1 -0.004894 0.00402068 -0.011565 0.000116 0 -0.011753 0 2650 
878 1 -0.00391042 0.00458665 -0.0112063 4.2e-05 -0.000281569 -0.00211859 -0.00050102 2650 
2474 1 -0.00254233 0.0040419 -0.0112078 0.000423 -0.00380852 -0.00865862 -0.00797376 2650 