ITEM: TIMESTEP
453516
ITEM: NUMBER OF ATOMS
4382
ITEM: BOX BOUNDS ff ff ff
-0.15 0.15
-0.15 0.06
-0.15 0.15
ITEM: ATOMS id type x y z radius vx vy vz density 
3810 1 -0.0454988 -0.0565347 -0.0517184 0.000116 -2.79247 0.988625 2.43956 2650 
1845 1 -0.0164986 -0.0434796 -0.0668578 0.000116 -2.29248 -2.38746 0.43731 2650 
208 1 -0.0169344 -0.00657165 -0.0298912 0.000116 -2.57311 -0.387471 -4.81275 2650 
843 1 -0.0170161 -0.00772315 -0.0255078 0.000116 -2.71595 -0.634246 -3.44373 2650 
3143 1 -0.0114873 -0.0272095 -0.0203366 0.000116 -1.78679 -2.10904 -3.29394 2650 
606 1 -0.000183 0.00521133 -0.016592 0.000116 0 -0.011753 0 2650 
2713 1 -0.000763 0.0121823 -0.016767 0.000116 0 -0.011753 0 2650 
4187 1 -0.00192671 -0.0036128 -0.0159649 0.000423 -0.16881 -0.683109 -0.0315808 2650 
4116 1 -0.004072 -0.000445665 -0.016193 0.000116 0 -0.011753 0 2650 
93 1 -0.00354 -3.46653e-05 -0.016299 0.000116 0 -0.011753 0 2650 
508 1 -0.00267151 -0.000408007 -0.0158881 0.000116 0.283794 0.385875 -0.0349134 2650 
1991 1 -0.002768 0.00154433 -0.01599 0.000656 0 -0.011753 0 2650 
736 1 -0.003429 0.00313633 -0.016474 0.000116 0 -0.011753 0 2650 
3645 1 -0.00114167 0.00339993 -0.0163312 0.000423 -0.0396579 0.0257819 0.0688514 2650 
2013 1 -0.003166 0.00431533 -0.016002 0.000423 0 -0.011753 0 2650 
3546 1 -0.002797 0.00627333 -0.016252 0.000423 0 -0.011753 0 2650 
2301 1 -0.004222 0.00698433 -0.016305 4.2e-05 0 -0.011753 0 2650 
188 1 -0.00068 0.00675333 -0.016516 0.000116 0 -0.011753 0 2650 
3616 1 -0.000938 0.00754833 -0.016074 4.2e-05 0 -0.011753 0 2650 
3934 1 -0.001977 0.00997333 -0.016218 0.000116 0 -0.011753 0 2650 
1357 1 -0.00174177 0.0107816 -0.016055 0.000423 -0.179373 0.15238 -0.0359714 2650 
225 1 -1.36378e-05 0.011501 -0.015865 0.000656 0.017424 -0.0482514 0.0145459 2650 
3503 1 -0.000403609 0.0116746 -0.0164238 4.2e-05 0.0522496 -0.102958 -0.0636393 2650 
1371 1 -0.000246598 0.0125625 -0.0162927 0.000423 0.0952296 0.026994 -0.0234521 2650 
2806 1 -0.0022618 -0.00313506 -0.0150707 0.000116 -0.216604 -0.253982 0.404703 2650 
691 1 -0.00078187 -0.00289725 -0.0157732 0.000423 -0.0513815 -0.051962 -0.00520377 2650 
3441 1 -0.005522 -0.00211167 -0.01502 0.000423 0 -0.011753 0 2650 
4038 1 -0.00086636 -0.00213519 -0.0155181 0.000116 0.125245 -0.284597 -0.0550816 2650 
3733 1 -0.0023802 -0.00073003 -0.01525 0.000656 -0.00225645 -0.0139572 0.00192232 2650 
330 1 -0.001698 -0.000770665 -0.015557 4.2e-05 0 -0.011753 0 2650 
2965 1 -2.2e-05 -0.000464665 -0.015341 4.2e-05 0 -0.011753 0 2650 
1679 1 -0.00365378 0.00371302 -0.0153713 0.000423 -0.00171971 -0.000820303 0.00170729 2650 
1569 1 -0.001572 0.00378033 -0.015407 0.000423 0 -0.011753 0 2650 
3147 1 -0.001711 0.00432833 -0.015157 0.000116 0 -0.011753 0 2650 
2399 1 -0.002418 0.00542533 -0.015541 0.000116 0 -0.011753 0 2650 
4296 1 -0.00156443 0.00601285 -0.0155155 0.000423 -0.000356005 -0.0132873 -0.00240934 2650 
1986 1 -0.0041361 0.00712659 -0.0154688 0.000656 -0.00578738 0.0209481 -0.0282702 2650 
3789 1 -0.002891 0.00732833 -0.015118 0.000116 0 -0.011753 0 2650 
728 1 -0.00217991 0.00755992 -0.0157655 0.000116 -0.0974289 0.166407 -0.102141 2650 
978 1 -0.005372 0.00867133 -0.015286 0.000116 0 -0.011753 0 2650 
2763 1 -0.00321298 0.00807269 -0.0151834 0.000423 0.12142 -0.210138 0.148766 2650 
2969 1 -0.001381 0.00799533 -0.015354 0.000656 0 -0.011753 0 2650 
2250 1 -0.00115619 0.00994698 -0.0154583 0.000423 -0.155375 0.0227889 0.0380727 2650 
3177 1 -0.001068 0.0110293 -0.015412 4.2e-05 0 -0.011753 0 2650 
3830 1 -0.006879 0.0115253 -0.015411 4.2e-05 0 -0.011753 0 2650 
884 1 -0.00418285 0.0116957 -0.0150606 0.000656 -0.0378318 0.0387573 -0.0430688 2650 
86 1 -0.002064 0.0112293 -0.015055 0.000116 0 -0.011753 0 2650 
938 1 -0.000869 0.0124353 -0.015416 0.000116 0 -0.011753 0 2650 
3632 1 -0.006134 0.0131513 -0.015144 0.000423 0 -0.011753 0 2650 
3330 1 -0.00665563 -0.00657641 -0.0148832 0.000423 -0.99397 -0.572218 -1.57794 2650 
4353 1 -0.00420508 -0.00561328 -0.0147814 0.000116 -0.819524 -0.452142 -2.25848 2650 
2256 1 -0.001753 -0.00266067 -0.014775 0.000116 0 -0.011753 0 2650 
747 1 -0.001416 -0.00264067 -0.014317 0.000116 0 -0.011753 0 2650 
3502 1 -0.001236 -0.00166567 -0.014816 4.2e-05 0 -0.011753 0 2650 
3156 1 -0.00109071 -0.00177355 -0.0146 0.000116 0.1015 -0.252562 0.115309 2650 
1640 1 -0.001358 -0.000332665 -0.014495 4.2e-05 0 -0.011753 0 2650 
2313 1 -0.005044 0.000511335 -0.014923 0.000656 0 -0.011753 0 2650 
2413 1 -0.003433 0.000349335 -0.014868 4.2e-05 0 -0.011753 0 2650 
1053 1 -0.007469 0.00158333 -0.014946 0.000116 0 -0.011753 0 2650 
2332 1 -0.003268 0.00187433 -0.014853 0.000423 0 -0.011753 0 2650 
3239 1 -0.002155 0.00179333 -0.014442 0.000116 0 -0.011753 0 2650 
1589 1 -0.00762677 0.0033451 -0.0146309 0.000423 -0.125399 0.0361393 0.00480898 2650 
2547 1 -0.00656473 0.00325583 -0.0149199 0.000423 -0.0835247 0.0612723 -0.0363848 2650 
2701 1 -0.0045942 0.00346073 -0.014318 0.000116 0.264721 0.173424 -0.282759 2650 
1059 1 -0.0061316 0.00420117 -0.0145933 0.000116 0.104302 0.290406 -0.257483 2650 
220 1 -0.003649 0.00448833 -0.014897 4.2e-05 0 -0.011753 0 2650 
3121 1 -0.007407 0.00530733 -0.014654 0.000423 0 -0.011753 0 2650 
4165 1 -0.00556793 0.00484844 -0.0147945 0.000656 -0.0108767 0.0128128 -0.0276882 2650 
104 1 -0.00218 0.00473733 -0.014554 4.2e-05 0 -0.011753 0 2650 
3322 1 -0.00408476 0.00598578 -0.0148675 0.000423 -0.0209456 -0.0191109 -0.033031 2650 
2438 1 -0.005612 0.00778633 -0.014612 0.000423 0 -0.011753 0 2650 
3365 1 -0.002315 0.00785133 -0.014552 0.000116 0 -0.011753 0 2650 
3564 1 -0.000147 0.00721433 -0.014738 0.000423 0 -0.011753 0 2650 
713 1 -0.0039655 0.00809517 -0.014692 0.000423 -0.0333908 0.0368981 0.0147375 2650 
4190 1 -0.007319 0.00952133 -0.014559 0.000423 0 -0.011753 0 2650 
3515 1 -0.00473207 0.00985317 -0.014759 0.000656 -0.002104 -0.0107719 -0.00140178 2650 
1346 1 -0.00133383 0.0101112 -0.0145462 0.000423 -0.0808467 0.195674 0.138394 2650 
1228 1 -0.001302 0.0113063 -0.014946 0.000423 0 -0.011753 0 2650 
371 1 -0.000507 0.0111043 -0.014221 0.000423 0 -0.011753 0 2650 
1654 1 -0.00151967 0.0143173 -0.0142426 0.000656 0.177779 0.189864 0.355705 2650 
1525 1 -0.00534683 0.0165296 -0.0149919 0.000116 0.0348354 0.358887 0.286739 2650 
3294 1 -0.0045393 0.0181874 -0.0143257 0.000656 -0.153178 0.532354 -0.151969 2650 
734 1 -0.00556165 -0.00667076 -0.0140256 0.000116 -0.850826 -0.52566 -1.52802 2650 
3229 1 -0.006614 -0.00254267 -0.01374 0.000423 0 -0.011753 0 2650 
327 1 -0.003849 -0.00242267 -0.013874 4.2e-05 0 -0.011753 0 2650 
1943 1 -0.002925 -0.00311467 -0.01374 0.000116 0 -0.011753 0 2650 
2705 1 -0.001432 -0.00260367 -0.013674 0.000116 0 -0.011753 0 2650 
2939 1 -0.008405 -0.00161967 -0.013483 0.000116 0 -0.011753 0 2650 
3622 1 -0.005521 -0.00177867 -0.013445 0.000656 0 -0.011753 0 2650 
3295 1 -0.00180579 -0.00160423 -0.0136784 0.000656 -0.0326807 -0.0261897 -0.0816896 2650 
1393 1 -0.009523 -0.00131567 -0.013534 0.000116 0 -0.011753 0 2650 
2685 1 -0.00705645 -0.00075414 -0.013424 0.000423 -0.0312052 -0.0791633 0.0473875 2650 
2783 1 -0.003328 -0.000280665 -0.013758 0.000423 0 -0.011753 0 2650 
4126 1 -0.001667 -0.000207665 -0.013741 0.000116 0 -0.011753 0 2650 
249 1 -0.00772235 0.000722408 -0.0141485 0.000423 -0.254763 -0.0912382 0.226262 2650 
3303 1 -0.00653412 5.94392e-05 -0.0140508 0.000656 -0.0119966 -0.0726635 -0.0251966 2650 
3778 1 -0.003893 0.00123633 -0.013816 0.000423 0 -0.011753 0 2650 
1620 1 -0.008456 0.00325533 -0.013856 0.000116 0 -0.011753 0 2650 
3587 1 -0.006279 0.00451233 -0.013694 0.000116 0 -0.011753 0 2650 
1219 1 -0.00508298 0.00404547 -0.0138715 0.000656 0.035204 0.0225104 -0.0281999 2650 
2485 1 -0.006627 0.00485933 -0.014195 0.000116 0 -0.011753 0 2650 
1327 1 -0.00577736 0.00637839 -0.0137229 0.000656 -0.243855 0.0891654 -0.0259286 2650 
3035 1 -0.00875 0.00745833 -0.013893 0.000116 0 -0.011753 0 2650 
2777 1 -0.00420202 0.00748492 -0.0141047 0.000423 -0.0600041 0.0325706 0.0604979 2650 
1288 1 -0.002467 0.00915433 -0.014044 0.000116 0 -0.011753 0 2650 
1974 1 -0.0021 0.00987533 -0.01365 4.2e-05 0 -0.011753 0 2650 
171 1 -0.001998 0.00977633 -0.013459 0.000116 0 -0.011753 0 2650 
2222 1 -0.000169 0.00978333 -0.014111 0.000423 0 -0.011753 0 2650 
581 1 -0.005568 0.0106753 -0.014167 0.000423 0 -0.011753 0 2650 
4365 1 -0.00401876 0.0103139 -0.0137905 0.000116 0.0405996 0.230547 0.18265 2650 
4314 1 -0.002273 0.0109823 -0.013891 0.000423 0 -0.011753 0 2650 
1476 1 -0.006941 0.0119543 -0.013435 0.000423 0 -0.011753 0 2650 
3669 1 -0.000597 0.0120603 -0.014068 0.000423 0 -0.011753 0 2650 
1409 1 -0.00044 0.0129343 -0.013868 0.000116 0 -0.011753 0 2650 
1957 1 -0.0020906 -0.00331621 -0.0131725 0.000116 -0.0550632 -0.0183353 -0.346943 2650 
428 1 -0.00922 -0.00257367 -0.013206 0.000116 0 -0.011753 0 2650 
3015 1 -0.008364 -0.00262867 -0.013043 0.000423 0 -0.011753 0 2650 
827 1 -0.005975 -0.00274667 -0.013005 0.000116 0 -0.011753 0 2650 
167 1 -0.004273 -0.00258867 -0.012826 0.000116 0 -0.011753 0 2650 
2732 1 -0.002992 -0.00265367 -0.013183 0.000116 0 -0.011753 0 2650 
3633 1 -0.00941 -0.00204967 -0.013111 0.000423 0 -0.011753 0 2650 
1487 1 -0.004643 -0.00217967 -0.013241 0.000116 0 -0.011753 0 2650 
4056 1 -0.00608261 -7.3274e-05 -0.0128021 0.000656 0.0626788 -0.0778813 -0.0270342 2650 
1924 1 -0.0102558 6.28713e-05 -0.0127188 0.000423 0.0561302 -0.0261987 -0.012502 2650 
3551 1 -0.005293 0.00129533 -0.013215 0.000423 0 -0.011753 0 2650 
3385 1 -0.00470179 0.00117532 -0.0133757 0.000116 0.172483 -0.186333 0.390817 2650 
1901 1 -0.00282716 0.00154495 -0.0130313 0.000423 -0.0507742 -0.0533762 0.0503681 2650 
1125 1 -0.000165 0.00188233 -0.013134 0.000423 0 -0.011753 0 2650 
4371 1 -0.000719 0.00269333 -0.012831 0.000116 0 -0.011753 0 2650 
2283 1 -0.000701 0.00300833 -0.012847 0.000116 0 -0.011753 0 2650 
2253 1 -0.00502688 0.00333084 -0.0128977 0.000423 0.19038 0.0583488 0.082303 2650 
2525 1 -0.004063 0.00338133 -0.013231 4.2e-05 0 -0.011753 0 2650 
1595 1 -0.007474 0.00403933 -0.012756 0.000423 0 -0.011753 0 2650 
2619 1 -0.005851 0.00419733 -0.012854 0.000116 0 -0.011753 0 2650 
3880 1 -0.010277 0.00511333 -0.012913 0.000423 0 -0.011753 0 2650 
2609 1 -0.00886 0.00492133 -0.013248 0.000116 0 -0.011753 0 2650 
2194 1 -0.002781 0.00533533 -0.012701 4.2e-05 0 -0.011753 0 2650 
2918 1 -0.00757 0.00627233 -0.012948 0.000116 0 -0.011753 0 2650 
933 1 -0.00644009 0.00554307 -0.0131736 0.000423 -0.205621 0.0138782 0.00393424 2650 
3917 1 -0.003984 0.00568233 -0.012703 0.000116 0 -0.011753 0 2650 
2059 1 -0.003583 0.00589133 -0.012756 0.000116 0 -0.011753 0 2650 
4241 1 -0.00121 0.00576633 -0.012987 0.000116 0 -0.011753 0 2650 
4078 1 -0.00595696 0.0072591 -0.0131088 0.000423 -0.0441213 0.108229 0.07417 2650 
2322 1 -0.00688 0.00842333 -0.013337 0.000656 0 -0.011753 0 2650 
1427 1 -0.002948 0.00822233 -0.013376 4.2e-05 0 -0.011753 0 2650 
3259 1 -0.008055 0.00928733 -0.013388 0.000116 0 -0.011753 0 2650 
4318 1 -0.007675 0.00896133 -0.012829 0.000423 0 -0.011753 0 2650 
1795 1 -0.008775 0.0102213 -0.012959 0.000423 0 -0.011753 0 2650 
1769 1 -0.004822 0.0101423 -0.013243 0.000656 0 -0.011753 0 2650 
1900 1 -0.00268586 0.00990115 -0.0129982 0.000423 -0.1762 0.273782 0.0946679 2650 
205 1 -0.000744 0.0109383 -0.01334 0.000116 0 -0.011753 0 2650 
4160 1 -0.006657 0.0133043 -0.013271 4.2e-05 0 -0.011753 0 2650 
1775 1 -0.008218 0.0136133 -0.012996 0.000423 0 -0.011753 0 2650 
3644 1 -0.000733 0.0136093 -0.013392 0.000423 0 -0.011753 0 2650 
2722 1 -0.00701398 0.0176303 -0.0130746 0.000116 -0.375324 0.405951 -0.00725073 2650 
2957 1 -0.010592 -0.00236967 -0.012102 4.2e-05 0 -0.011753 0 2650 
4068 1 -0.001953 -0.00288767 -0.012327 0.000423 0 -0.011753 0 2650 
868 1 -0.000201 -0.00241967 -0.012301 0.000116 0 -0.011753 0 2650 
2238 1 -0.00701 -0.00215567 -0.01254 0.000423 0 -0.011753 0 2650 
4150 1 -0.001319 -0.00204467 -0.012208 0.000116 0 -0.011753 0 2650 
3261 1 -0.010456 -0.00119567 -0.012294 0.000116 0 -0.011753 0 2650 
3200 1 -0.006116 -0.00123567 -0.012539 0.000423 0 -0.011753 0 2650 
2819 1 -0.007468 -5.96653e-05 -0.012046 0.000116 0 -0.011753 0 2650 
2468 1 -0.003167 -0.000220665 -0.012131 0.000423 0 -0.011753 0 2650 
545 1 -0.002328 -0.000593665 -0.012432 4.2e-05 0 -0.011753 0 2650 
950 1 -0.010031 0.000672335 -0.011866 0.000116 0 -0.011753 0 2650 
250 1 -0.009469 0.000212335 -0.012384 0.000423 0 -0.011753 0 2650 
1763 1 -0.001143 6.73347e-05 -0.012442 0.000656 0 -0.011753 0 2650 
3643 1 -0.004315 0.00111433 -0.012192 0.000423 0 -0.011753 0 2650 
3637 1 -0.002026 0.00124633 -0.012108 0.000423 0 -0.011753 0 2650 
3411 1 -0.009662 0.00184133 -0.012148 0.000656 0 -0.011753 0 2650 
2293 1 -0.00415731 0.00209486 -0.0119306 0.000116 0.310609 0.0311192 0.0518803 2650 
1422 1 -0.003881 0.00191333 -0.012349 4.2e-05 0 -0.011753 0 2650 
623 1 -0.005429 0.00242033 -0.012246 0.000116 0 -0.011753 0 2650 
1799 1 -0.003237 0.00272833 -0.012061 0.000423 0 -0.011753 0 2650 
2813 1 -1e-05 0.00258033 -0.012237 0.000116 0 -0.011753 0 2650 
3956 1 -0.008956 0.00349933 -0.012273 0.000656 0 -0.011753 0 2650 
3201 1 -0.004366 0.00347433 -0.012379 0.000423 0 -0.011753 0 2650 
2690 1 -0.000333 0.00335133 -0.012265 0.000423 0 -0.011753 0 2650 
3389 1 -0.010415 0.00417933 -0.012026 0.000116 0 -0.011753 0 2650 
856 1 -0.00389 0.00439833 -0.0119 0.000116 0 -0.011753 0 2650 
1657 1 -0.00852876 0.00537211 -0.0119994 0.000656 -0.00770092 -0.0112608 -0.00233815 2650 
2471 1 -0.00643098 0.00551014 -0.012216 0.000423 -0.0907234 0.0202287 0.0449903 2650 
411 1 -0.009436 0.00584733 -0.012079 0.000116 0 -0.011753 0 2650 
3826 1 -0.009208 0.00607433 -0.012552 0.000116 0 -0.011753 0 2650 
3316 1 -0.008979 0.00682733 -0.012376 0.000423 0 -0.011753 0 2650 
1261 1 -0.007462 0.00673133 -0.012403 0.000423 0 -0.011753 0 2650 
3362 1 -0.002672 0.00684033 -0.012199 0.000116 0 -0.011753 0 2650 
3446 1 -0.002592 0.00783433 -0.012627 0.000423 0 -0.011753 0 2650 
1590 1 -0.008874 0.00802133 -0.012037 0.000423 0 -0.011753 0 2650 
4066 1 -0.006253 0.00826133 -0.011956 0.000656 0 -0.011753 0 2650 
3030 1 -0.001189 0.00833733 -0.012596 0.000116 0 -0.011753 0 2650 
70 1 -0.010029 0.00926233 -0.01242 0.000116 0 -0.011753 0 2650 
191 1 -0.011348 0.00965833 -0.012254 0.000116 0 -0.011753 0 2650 
3847 1 -0.009739 0.0102593 -0.012406 0.000656 0 -0.011753 0 2650 
1495 1 -0.004483 0.00980533 -0.012591 0.000116 0 -0.011753 0 2650 
1250 1 -0.007399 0.0109843 -0.012448 0.000423 0 -0.011753 0 2650 
3173 1 -0.004958 0.0104663 -0.012321 4.2e-05 0 -0.011753 0 2650 
2109 1 -0.001932 0.0106053 -0.012277 0.000423 0 -0.011753 0 2650 
2630 1 -0.001036 0.0106743 -0.012074 4.2e-05 0 -0.011753 0 2650 
4002 1 -0.000443 0.0104983 -0.01223 0.000116 0 -0.011753 0 2650 
911 1 -0.00414681 0.0114949 -0.0123996 0.000423 -0.0142707 -0.015291 -0.00505979 2650 
65 1 -0.009488 0.0118793 -0.011959 0.000116 0 -0.011753 0 2650 
1423 1 -0.00145 0.0121543 -0.012526 4.2e-05 0 -0.011753 0 2650 
2483 1 -0.008006 0.0130363 -0.012441 0.000116 0 -0.011753 0 2650 
1578 1 -0.007713 0.0128753 -0.011972 0.000423 0 -0.011753 0 2650 
2205 1 -0.004822 0.0133253 -0.012334 0.000656 0 -0.011753 0 2650 
821 1 -0.00584408 -0.00352324 -0.0113839 0.000423 -0.284454 -0.176821 -0.550563 2650 
704 1 -0.01034 -0.00284067 -0.011479 0.000423 0 -0.011753 0 2650 
3999 1 -0.005715 -0.00268467 -0.011742 0.000423 0 -0.011753 0 2650 
3679 1 -0.012092 -0.00188267 -0.011604 0.000116 0 -0.011753 0 2650 
2072 1 -0.009308 -0.00202067 -0.011721 0.000116 0 -0.011753 0 2650 
3505 1 -0.006952 -0.000924665 -0.011235 4.2e-05 0 -0.011753 0 2650 
3191 1 -0.00362665 -0.0015738 -0.0114794 0.000656 -0.0505784 0.0119691 -0.00142744 2650 
1022 1 -0.002093 -0.00105467 -0.011454 0.000423 0 -0.011753 0 2650 
123 1 -0.010848 -0.000360665 -0.011246 0.000423 0 -0.011753 0 2650 
2166 1 -0.009005 -0.000514665 -0.011549 0.000116 0 -0.011753 0 2650 
2022 1 -0.004959 -0.000359665 -0.011261 0.000423 0 -0.011753 0 2650 
2827 1 -0.001988 0.000614335 -0.011163 0.000116 0 -0.011753 0 2650 
440 1 -0.00061 0.000377335 -0.011485 4.2e-05 0 -0.011753 0 2650 
3311 1 -0.0087053 0.00131569 -0.0116185 0.000423 -0.426786 0.143506 -0.100699 2650 
1452 1 -0.00142 0.00231633 -0.011258 0.000423 0 -0.011753 0 2650 
4215 1 -0.011184 0.00248633 -0.011524 0.000423 0 -0.011753 0 2650 
2279 1 -0.011345 0.00304933 -0.01145 0.000116 0 -0.011753 0 2650 
2579 1 -0.008716 0.00249633 -0.011261 0.000423 0 -0.011753 0 2650 
3535 1 -9.9e-05 0.00278933 -0.011488 0.000423 0 -0.011753 0 2650 
3223 1 -0.010476 0.00359133 -0.011335 0.000423 0 -0.011753 0 2650 
3894 1 -0.005583 0.00354833 -0.011098 0.000116 0 -0.011753 0 2650 
1063 1 -0.009531 0.00410333 -0.011683 0.000116 0 -0.011753 0 2650 
3383 1 -0.011681 0.00509833 -0.011229 0.000116 0 -0.011753 0 2650 
3235 1 -0.00636963 0.00483407 -0.0115402 0.000423 -0.00988696 -0.0212582 0.0528137 2650 
3542 1 -0.003838 0.00527433 -0.011253 0.000423 0 -0.011753 0 2650 
1717 1 -0.0108012 0.00558193 -0.0111955 0.000116 0.397807 0.269137 0.223069 2650 
2294 1 -0.004894 0.00578433 -0.011565 0.000116 0 -0.011753 0 2650 
878 1 -0.003908 0.00626733 -0.011202 4.2e-05 0 -0.011753 0 2650 
708 1 -0.00252 0.00598033 -0.011391 0.000423 0 -0.011753 0 2650 
1822 1 -0.008034 0.00683733 -0.011166 0.000116 0 -0.011753 0 2650 
234 1 -0.004437 0.00681033 -0.011677 0.000423 0 -0.011753 0 2650 
1758 1 -0.00201 0.00709833 -0.01144 4.2e-05 0 -0.011753 0 2650 
1215 1 -0.009596 0.00739133 -0.01151 0.000656 0 -0.011753 0 2650 
4027 1 -0.003218 0.00822933 -0.011075 0.000116 0 -0.011753 0 2650 
2409 1 -0.002586 0.00816833 -0.011527 4.2e-05 0 -0.011753 0 2650 
222 1 -0.001264 0.00821633 -0.011144 0.000656 0 -0.011753 0 2650 
2798 1 -0.008755 0.00926833 -0.01131 0.000423 0 -0.011753 0 2650 
2913 1 -0.002971 0.00887733 -0.011434 0.000116 0 -0.011753 0 2650 
823 1 -0.000639 0.00940333 -0.011216 0.000423 0 -0.011753 0 2650 
1617 1 -0.00424 0.0101573 -0.011492 0.000116 0 -0.011753 0 2650 
2596 1 -0.001219 0.00971233 -0.011432 0.000116 0 -0.011753 0 2650 
1935 1 -0.00289726 0.0109541 -0.0112022 0.000116 -0.0650223 -0.119388 0.0262199 2650 
3684 1 -0.00483 0.0114393 -0.011273 0.000116 0 -0.011753 0 2650 
1663 1 -0.009704 0.0125523 -0.011499 0.000423 0 -0.011753 0 2650 
3145 1 -0.006381 0.0126203 -0.011273 0.000116 0 -0.011753 0 2650 
1143 1 -0.0020126 0.0127408 -0.0116398 0.000423 0.00744219 0.00969658 -0.00437689 2650 
2111 1 -0.009632 0.0135393 -0.011343 0.000423 0 -0.011753 0 2650 
976 1 -0.005828 0.0139973 -0.011785 0.000116 0 -0.011753 0 2650 
1173 1 -0.00895012 0.0270273 -0.0116098 0.000116 -0.423529 1.32742 0.830452 2650 
2820 1 -0.007052 -0.00266467 -0.010962 0.000116 0 -0.011753 0 2650 
3265 1 -0.006001 -0.00267667 -0.010684 0.000116 0 -0.011753 0 2650 
4373 1 -0.004239 -0.00165867 -0.010869 4.2e-05 0 -0.011753 0 2650 
3426 1 -0.000992 -0.00191867 -0.010574 0.000423 0 -0.011753 0 2650 
3603 1 -0.004768 -0.00132067 -0.010424 0.000116 0 -0.011753 0 2650 
15 1 -0.001892 -0.00126767 -0.010407 0.000423 0 -0.011753 0 2650 
2848 1 -0.010456 -0.000623665 -0.010698 4.2e-05 0 -0.011753 0 2650 
3640 1 -0.009654 -0.000462665 -0.010891 0.000423 0 -0.011753 0 2650 
3093 1 -0.002889 -2.86653e-05 -0.010782 0.000423 0 -0.011753 0 2650 
2130 1 -0.000316 -0.000203665 -0.010491 0.000423 0 -0.011753 0 2650 
3960 1 -0.008634 0.000284335 -0.010875 0.000423 0 -0.011753 0 2650 
1193 1 -4.3e-05 0.000362335 -0.010628 0.000116 0 -0.011753 0 2650 
3866 1 -0.011939 0.00133833 -0.01034 0.000423 0 -0.011753 0 2650 
281 1 -0.00973 0.00105433 -0.010656 0.000116 0 -0.011753 0 2650 
388 1 -0.008271 0.000880335 -0.010879 0.000116 0 -0.011753 0 2650 
2542 1 -0.005905 0.00116533 -0.010347 0.000423 0 -0.011753 0 2650 
3673 1 -0.00272 0.000826335 -0.010833 0.000423 0 -0.011753 0 2650 
3284 1 -0.001323 0.000851335 -0.010635 4.2e-05 0 -0.011753 0 2650 
3530 1 -0.000573 0.00132133 -0.010526 0.000423 0 -0.011753 0 2650 
1233 1 -0.012882 0.00248033 -0.010287 0.000423 0 -0.011753 0 2650 
4104 1 -0.009745 0.00323933 -0.010868 0.000423 0 -0.011753 0 2650 
497 1 -0.00574 0.00347433 -0.010398 0.000116 0 -0.011753 0 2650 
124 1 -0.005032 0.00337933 -0.01051 0.000423 0 -0.011753 0 2650 
1192 1 -0.004051 0.00369833 -0.010435 0.000116 0 -0.011753 0 2650 
2912 1 -0.006578 0.00564133 -0.010859 0.000116 0 -0.011753 0 2650 
3787 1 -0.006362 0.00607733 -0.010668 0.000116 0 -0.011753 0 2650 
861 1 -0.006339 0.00658833 -0.010358 0.000116 0 -0.011753 0 2650 
760 1 -0.006943 0.00641433 -0.010573 4.2e-05 0 -0.011753 0 2650 
1381 1 -0.00226856 0.00653674 -0.0103362 0.000116 0.0814598 0.325994 -0.167727 2650 
2326 1 -0.011808 0.00736733 -0.010725 0.000423 0 -0.011753 0 2650 
2948 1 -0.002008 0.00778033 -0.010384 0.000116 0 -0.011753 0 2650 
2500 1 -0.010648 0.00796333 -0.010771 0.000116 0 -0.011753 0 2650 
4166 1 -0.004213 0.00807033 -0.01052 0.000656 0 -0.011753 0 2650 
1826 1 -0.0075944 0.00908891 -0.0103358 0.000116 0.0475356 1.0173 0.39527 2650 
3727 1 -0.004412 0.00871833 -0.010287 4.2e-05 0 -0.011753 0 2650 
3456 1 -0.003405 0.00885533 -0.010654 0.000423 0 -0.011753 0 2650 
1010 1 -0.011662 0.00997633 -0.010903 0.000423 0 -0.011753 0 2650 
3132 1 -0.007716 0.0100393 -0.01033 0.000116 0 -0.011753 0 2650 
2097 1 -0.00889 0.0105323 -0.010395 0.000656 0 -0.011753 0 2650 
89 1 -0.003936 0.0105843 -0.010466 0.000116 0 -0.011753 0 2650 
2861 1 -0.000242188 0.0109388 -0.0110113 0.000656 0.0605678 -0.014212 0.00425057 2650 
2759 1 -0.011495 0.0115323 -0.010915 0.000656 0 -0.011753 0 2650 
1376 1 -0.009927 0.0112783 -0.010971 0.000116 0 -0.011753 0 2650 
2261 1 -0.007381 0.0116293 -0.010514 0.000116 0 -0.011753 0 2650 
2260 1 -0.008542 0.0122503 -0.010892 0.000116 0 -0.011753 0 2650 
233 1 -0.004974 0.0118653 -0.010958 0.000423 0 -0.011753 0 2650 
1802 1 -0.004638 0.0126253 -0.010282 0.000423 0 -0.011753 0 2650 
4167 1 -0.003538 0.0119723 -0.010916 0.000656 0 -0.011753 0 2650 
499 1 -0.011613 0.0130003 -0.010379 0.000116 0 -0.011753 0 2650 
1754 1 -0.008854 0.0131063 -0.010611 4.2e-05 0 -0.011753 0 2650 
1913 1 -0.008189 0.0132403 -0.010954 0.000423 0 -0.011753 0 2650 
3899 1 -0.004387 0.0131243 -0.010427 0.000116 0 -0.011753 0 2650 
3595 1 -0.007357 0.0138093 -0.010628 0.000116 0 -0.011753 0 2650 
3767 1 -0.006013 0.0137253 -0.010843 0.000423 0 -0.011753 0 2650 
963 1 -0.000669 0.0137883 -0.010387 0.000116 0 -0.011753 0 2650 
1068 1 -0.01118 -0.00286367 -0.009643 0.000116 0 -0.011753 0 2650 
4285 1 -0.0094 -0.00272867 -0.00984 0.000423 0 -0.011753 0 2650 
3652 1 -0.0109816 -0.00170994 -0.00957128 0.000423 -0.0103103 -0.0416486 0.00256542 2650 
3933 1 -0.006596 -0.00195767 -0.009623 0.000116 0 -0.011753 0 2650 
939 1 -0.001916 -0.000901665 -0.009682 0.000116 0 -0.011753 0 2650 
1630 1 -0.00227 -0.000836665 -0.00958 0.000116 0 -0.011753 0 2650 
3756 1 -0.00779946 -0.000272738 -0.00986339 0.000423 -0.135759 0.0517513 -0.0013875 2650 
417 1 -0.004944 -0.000591665 -0.009884 0.000116 0 -0.011753 0 2650 
3460 1 -0.013084 0.000268335 -0.009951 0.000116 0 -0.011753 0 2650 
2778 1 -0.01202 0.000533335 -0.00976 0.000423 0 -0.011753 0 2650 
1750 1 -0.011512 0.00117533 -0.01018 4.2e-05 0 -0.011753 0 2650 
1160 1 -0.010117 0.00139133 -0.010115 0.000116 0 -0.011753 0 2650 
3264 1 -0.003542 0.00136233 -0.010108 0.000116 0 -0.011753 0 2650 
1562 1 -0.002141 0.000933335 -0.010154 0.000423 0 -0.011753 0 2650 
2164 1 -0.012835 0.00179833 -0.009898 0.000116 0 -0.011753 0 2650 
2436 1 -0.00616687 0.0019747 -0.00954573 0.000423 -0.243386 -0.136927 0.0258156 2650 
800 1 -0.00114 0.00165233 -0.009738 0.000423 0 -0.011753 0 2650 
3135 1 -0.00038 0.00232833 -0.010152 0.000116 0 -0.011753 0 2650 
3832 1 -0.01255 0.00278033 -0.009616 4.2e-05 0 -0.011753 0 2650 
2975 1 -0.011752 0.00241133 -0.009985 0.000656 0 -0.011753 0 2650 
4374 1 -0.008921 0.00254633 -0.009568 4.2e-05 0 -0.011753 0 2650 
3250 1 -0.008233 0.00251933 -0.010036 0.000116 0 -0.011753 0 2650 
1977 1 -0.006037 0.00378933 -0.009842 4.2e-05 0 -0.011753 0 2650 
3324 1 -0.0113117 0.00404042 -0.0099364 0.000423 -0.0148526 -0.0100043 0.0122397 2650 
3031 1 -0.011934 0.00528933 -0.00971 0.000116 0 -0.011753 0 2650 
364 1 -0.008943 0.00474933 -0.009746 0.000423 0 -0.011753 0 2650 
2474 1 -0.001928 0.00513333 -0.009724 0.000423 0 -0.011753 0 2650 
3790 1 -0.012918 0.00572033 -0.010098 0.000116 0 -0.011753 0 2650 
3116 1 -0.01058 0.00579033 -0.009568 0.000423 0 -0.011753 0 2650 
958 1 -0.001223 0.00628833 -0.009713 0.000116 0 -0.011753 0 2650 
4256 1 -0.007946 0.00648333 -0.010197 0.000116 0 -0.011753 0 2650 
3364 1 -0.006241 0.00658233 -0.010015 0.000116 0 -0.011753 0 2650 
1310 1 -0.011355 0.00784233 -0.010263 4.2e-05 0 -0.011753 0 2650 
3071 1 -0.009089 0.00864733 -0.009836 4.2e-05 0 -0.011753 0 2650 
3967 1 -0.007915 0.0101193 -0.009637 0.000423 0 -0.011753 0 2650 
2581 1 -0.004751 0.00964433 -0.01 0.000423 0 -0.011753 0 2650 
3784 1 -0.00735 0.0103823 -0.00989 0.000116 0 -0.011753 0 2650 
2344 1 -0.001557 0.0105453 -0.009839 0.000423 0 -0.011753 0 2650 
3361 1 -5.4e-05 0.0107943 -0.010103 0.000116 0 -0.011753 0 2650 
301 1 -0.005514 0.0116833 -0.009906 0.000116 0 -0.011753 0 2650 
660 1 -0.002925 0.0121243 -0.009723 4.2e-05 0 -0.011753 0 2650 
1827 1 -0.000405 0.0126293 -0.009578 0.000116 0 -0.011753 0 2650 
1087 1 -0.005985 0.0129363 -0.009545 0.000116 0 -0.011753 0 2650 
2781 1 -0.00306423 0.0131597 -0.010016 0.000423 -0.0117237 -0.0176724 0.00043508 2650 
3409 1 -0.0082898 -0.00270393 -0.00939312 0.000656 -0.0291181 -0.012917 -0.0261862 2650 
2846 1 -0.006122 -0.00304367 -0.009068 4.2e-05 0 -0.011753 0 2650 
2224 1 -0.004317 -0.00270767 -0.008931 0.000423 0 -0.011753 0 2650 
1239 1 -0.00333502 -0.00306588 -0.0089255 0.000423 -0.0112942 -0.0224869 -0.0158758 2650 
1787 1 -0.012291 -0.00167167 -0.008935 0.000423 0 -0.011753 0 2650 
4306 1 -0.00926123 -0.00187459 -0.00869765 0.000423 -0.126995 0.0327832 -0.0544925 2650 
756 1 -0.007322 -0.00169267 -0.009147 0.000116 0 -0.011753 0 2650 
661 1 -0.00804501 -0.00138335 -0.00931837 0.000656 -0.028237 -0.0548833 0.0282388 2650 
3393 1 -0.006109 -0.000432665 -0.008736 4.2e-05 0 -0.011753 0 2650 
1690 1 -0.004681 -0.000555665 -0.00917 0.000423 0 -0.011753 0 2650 
159 1 -0.005821 0.000179335 -0.009096 0.000423 0 -0.011753 0 2650 
193 1 -0.010056 0.00193333 -0.009264 0.000116 0 -0.011753 0 2650 
3935 1 -0.00661363 0.00216715 -0.00926406 0.000116 -0.204491 0.0198831 0.095876 2650 
3219 1 -0.000537188 0.00234023 -0.00914241 0.000423 0.157702 -0.0561135 -0.0658825 2650 
3450 1 -0.011877 0.00272233 -0.008756 0.000423 0 -0.011753 0 2650 
1184 1 -0.011934 0.00297433 -0.00927 0.000116 0 -0.011753 0 2650 
608 1 -0.01048 0.00249233 -0.008875 0.000116 0 -0.011753 0 2650 
2299 1 -0.003792 0.00238633 -0.009457 4.2e-05 0 -0.011753 0 2650 
1121 1 -0.002698 0.00260433 -0.00928 0.000423 0 -0.011753 0 2650 
2541 1 -0.0065638 0.00423205 -0.00924463 0.000656 -0.00129575 -0.0112361 0.000264226 2650 
4013 1 -0.00567256 0.00443039 -0.00945442 0.000116 0.120721 0.294041 -0.0401455 2650 
3558 1 -0.007141 0.00546533 -0.00937 0.000423 0 -0.011753 0 2650 
1171 1 -0.008755 0.00612233 -0.00943 0.000116 0 -0.011753 0 2650 
1567 1 -0.008425 0.00708133 -0.008875 0.000423 0 -0.011753 0 2650 
1584 1 -0.005051 0.00701633 -0.00882 0.000423 0 -0.011753 0 2650 
373 1 -0.01088 0.00734433 -0.009322 0.000423 0 -0.011753 0 2650 
842 1 -0.010207 0.00764733 -0.009055 0.000116 0 -0.011753 0 2650 
2633 1 -0.005185 0.00759733 -0.009252 4.2e-05 0 -0.011753 0 2650 
3984 1 -0.012135 0.00793333 -0.009019 0.000423 0 -0.011753 0 2650 
949 1 -0.004033 0.00814833 -0.009175 0.000116 0 -0.011753 0 2650 
4077 1 -0.012422 0.00916933 -0.00892 0.000423 0 -0.011753 0 2650 
2649 1 -0.00472 0.00905633 -0.008709 0.000656 0 -0.011753 0 2650 
2270 1 -0.00326706 0.00889405 -0.00916941 0.000116 0.115017 0.0762965 -0.582362 2650 
368 1 -0.013572 0.00964833 -0.008947 0.000423 0 -0.011753 0 2650 
595 1 -0.009604 0.00983733 -0.009278 0.000423 0 -0.011753 0 2650 
4368 1 -0.004474 0.0102293 -0.008808 0.000116 0 -0.011753 0 2650 
3042 1 -0.012085 0.0109243 -0.009039 0.000116 0 -0.011753 0 2650 
2678 1 -0.01021 0.0109233 -0.009104 0.000423 0 -0.011753 0 2650 
2094 1 -0.006452 0.0118173 -0.009074 0.000656 0 -0.011753 0 2650 
1021 1 -0.012788 0.0124833 -0.008833 0.000423 0 -0.011753 0 2650 
796 1 -0.00925 0.0124493 -0.009199 0.000423 0 -0.011753 0 2650 
4179 1 -0.00478317 0.011986 -0.00903634 0.000423 -0.00365698 -0.00657615 -0.0104014 2650 
1859 1 -0.011231 0.0132963 -0.009139 4.2e-05 0 -0.011753 0 2650 
232 1 -0.010455 0.0132883 -0.008807 0.000656 0 -0.011753 0 2650 
449 1 -0.002169 0.0127063 -0.008811 0.000656 0 -0.011753 0 2650 
473 1 -0.006405 0.0136373 -0.009211 0.000423 0 -0.011753 0 2650 
1521 1 -0.005494 0.0136303 -0.009109 0.000116 0 -0.011753 0 2650 
947 1 -0.013531 -0.00324967 -0.00802 0.000116 0 -0.011753 0 2650 
3204 1 -0.00867533 -0.00238714 -0.00812516 0.000423 -0.208466 -0.0894485 0.104639 2650 
3875 1 -0.00756789 -0.00272919 -0.00858411 0.000423 -0.142912 -0.118758 0.115916 2650 
1774 1 -0.001246 -0.00269967 -0.00814 0.000423 0 -0.011753 0 2650 
2545 1 -0.012942 -0.00225967 -0.007898 0.000423 0 -0.011753 0 2650 
4036 1 -0.00940304 -0.00160003 -0.00824336 0.000116 -0.236998 0.0129395 -0.00539459 2650 
811 1 -0.0023993 -0.00177082 -0.00863548 0.000423 -0.317633 -0.0992219 0.0180536 2650 
2273 1 -0.013708 -0.000823665 -0.008112 0.000116 0 -0.011753 0 2650 
1169 1 -0.007648 -0.00138167 -0.008568 0.000116 0 -0.011753 0 2650 
3482 1 -0.00290794 -0.00148254 -0.00840724 0.000116 0.00225549 -0.234656 -0.0429905 2650 
3283 1 -0.006893 2.33347e-05 -0.007981 4.2e-05 0 -0.011753 0 2650 
3599 1 -0.002399 0.00120933 -0.008331 0.000116 0 -0.011753 0 2650 
786 1 -0.000492 0.00102433 -0.008029 0.000423 0 -0.011753 0 2650 
4275 1 -0.012816 0.00383533 -0.008558 0.000656 0 -0.011753 0 2650 
932 1 -0.010541 0.00316233 -0.008145 0.000423 0 -0.011753 0 2650 
2285 1 -0.009362 0.00436033 -0.008376 0.000116 0 -0.011753 0 2650 
503 1 -0.004804 0.00472533 -0.007904 0.000116 0 -0.011753 0 2650 
3011 1 -0.002993 0.00427333 -0.008536 0.000423 0 -0.011753 0 2650 
3477 1 -0.012713 0.00497633 -0.008303 0.000116 0 -0.011753 0 2650 