ITEM: TIMESTEP
11564658
ITEM: NUMBER OF ATOMS
4311
ITEM: BOX BOUNDS ff ff ff
-0.15 0.15
-0.15 0.06
-0.15 0.15
ITEM: ATOMS id type x y z radius vx vy vz density 
3376 1 -0.112406 -0.0193545 0.0698758 0.000116 -5.23821 0.110138 10.2874 2650 
1206 1 -0.111165 -0.0352458 0.0886611 4.2e-05 -2.9408 0.325298 7.11608 2650 
2601 1 -0.0113064 -0.0500302 -0.0679497 0.000116 -7.8339 0.774671 1.30338 2650 
2857 1 -0.0173819 -0.0464847 -0.0660905 0.000656 -7.91371 -0.0267646 2.10985 2650 
2201 1 -0.030585 -0.0531551 -0.061122 0.000656 -7.60045 -0.0397378 3.82604 2650 
3073 1 -0.0415701 -0.0506904 -0.0550144 4.2e-05 -5.90607 0.528929 4.47528 2650 
3519 1 -0.0416844 -0.0456895 -0.0541631 0.000656 -6.89751 -0.0759524 5.33112 2650 
4009 1 -0.0562604 -0.0578421 -0.0397464 0.000116 -3.61607 0.254987 5.10685 2650 
3957 1 -0.0557652 -0.0550784 -0.0395162 0.000656 -4.90226 -0.0317072 6.87818 2650 
3845 1 -0.0579054 -0.0456876 -0.0363085 0.000656 -4.60058 0.026428 7.3064 2650 
3753 1 -0.058669 -0.0500858 -0.0355105 0.000423 -4.18625 -0.496366 6.91585 2650 
1135 1 -0.0678606 -0.0492013 -0.00989633 0.000423 -1.06867 0.0259793 7.53552 2650 
1856 1 -0.067413 -0.05594 0.0141568 0.000116 1.16274 -0.125256 5.50904 2650 
2132 1 -0.0667386 -0.0473527 0.0157786 0.000423 1.948 0.0570862 8.29688 2650 
947 1 -0.063704 -0.0563871 0.0262069 0.000116 2.75527 0.450845 6.70777 2650 
534 1 -0.0609517 -0.047097 0.0320926 0.000116 5.24405 0.0800748 9.95236 2650 
3946 1 -0.0530794 -0.0472525 0.0440197 4.2e-05 4.51228 0.32567 5.44281 2650 
2314 1 -0.046249 -0.0460959 0.0503183 0.000656 6.6356 -0.00134555 6.09124 2650 
2708 1 -0.0435789 -0.0473348 0.0533474 0.000116 6.22401 -0.197009 5.10529 2650 
3891 1 -0.0293301 -0.0577452 0.0619814 0.000423 6.14477 -1.17372 2.91299 2650 
1550 1 -0.0294781 -0.0481393 0.0616306 0.000656 8.0021 0.174677 3.80565 2650 
3840 1 -0.0160518 -0.0452541 0.066435 0.000656 8.40517 0.0352976 2.04801 2650 
245 1 -0.00585676 -0.0452948 0.0683236 0.000423 7.66893 0.0996984 0.642949 2650 
3391 1 -0.000327428 -0.0547743 0.0689576 4.2e-05 6.24527 -0.240466 0.0282529 2650 
2835 1 -0.0244102 -0.0616395 0.0909486 0.000116 6.20329 0.164869 10.1039 2650 
3613 1 -0.0675838 -0.0372449 -0.0851205 4.2e-05 -8.72419 -1.92309 -1.8903 2650 
1278 1 -0.0666694 -0.0192398 -0.0714045 0.000116 -11.6489 0.189068 -0.458845 2650 
2620 1 -0.00360288 -0.0216997 -0.0687895 0.000116 -8.57679 0.114667 0.44807 2650 
3701 1 -0.00123259 -0.0179423 -0.0688728 0.000116 -6.46078 -0.0457503 0.104541 2650 
3308 1 -0.00431911 -0.0381075 -0.0684417 0.000423 -8.20845 0.233062 0.518988 2650 
453 1 -0.00771346 -0.0311954 -0.0681431 0.000423 -7.27763 0.436594 0.837407 2650 
3095 1 -0.00570449 -0.0235327 -0.0683404 0.000423 -8.65321 -0.0675134 0.713186 2650 
1356 1 -0.00316769 -0.0219332 -0.0685046 0.000423 -8.58271 -0.0703436 0.410912 2650 
877 1 -0.0119372 -0.0175973 -0.0679103 4.2e-05 -6.93947 -0.85751 1.19299 2650 
2100 1 -0.0051823 -0.0174269 -0.0681491 0.000656 -6.76508 -0.0356891 0.483133 2650 
138 1 -0.00866916 -0.0120941 -0.0680175 0.000423 -6.50201 0.0456694 0.858538 2650 
3375 1 -0.0106949 -0.0111744 -0.0680231 0.000116 -6.60906 0.168445 0.99242 2650 
849 1 -0.00966486 -0.0112255 -0.0681971 0.000116 -5.34792 -0.228489 0.596507 2650 
3168 1 -0.00741824 -0.00991414 -0.0684802 0.000116 -6.43372 -0.215514 0.652007 2650 
1207 1 -0.0102341 -0.00756908 -0.0681647 4.2e-05 -6.33652 0.180814 0.891201 2650 
2827 1 -0.0112357 -0.00610023 -0.0679349 0.000116 -5.24111 0.0313394 0.855987 2650 
171 1 -0.00538139 -0.00275094 -0.068673 0.000116 -6.32888 0.118064 0.503649 2650 
1994 1 -0.0130905 -0.0185279 -0.0673129 0.000423 -6.72245 -0.0584591 1.36058 2650 
4164 1 -0.0137964 -0.00272275 -0.0675624 4.2e-05 -5.88945 0.240888 1.1951 2650 
1239 1 -0.0150869 -0.03836 -0.0668902 0.000423 -8.58674 0.0664611 1.93041 2650 
2557 1 -0.0159204 -0.0356288 -0.0666858 0.000423 -6.99484 0.0678602 1.65375 2650 
2966 1 -0.0158493 -0.0311601 -0.0664539 0.000656 -7.45302 0.0124688 1.76266 2650 
2982 1 -0.0169716 -0.0214503 -0.0664438 0.000423 -6.67651 0.301567 1.74867 2650 
3233 1 -0.0195168 -0.00882927 -0.0657424 0.000423 -3.09358 -0.272855 0.914764 2650 
3390 1 -0.0208093 -0.00748394 -0.0656663 0.000116 -5.96821 0.190127 1.88471 2650 
1604 1 -0.0211831 -0.000116053 -0.0655458 0.000116 -7.41446 0.00454656 2.39468 2650 
3015 1 -0.0212083 -0.0210869 -0.0652165 0.000423 -7.07614 -0.028214 2.28324 2650 
1946 1 -0.0225832 -0.0109332 -0.0650775 0.000116 -5.96167 0.189827 2.0758 2650 
1832 1 -0.0216243 -0.000116015 -0.0654016 0.000116 -7.39899 0.000902072 2.44306 2650 
2954 1 -0.021404 -0.000116018 -0.0654742 0.000116 -7.40776 0.000137662 2.41775 2650 
2238 1 -0.0227899 -0.0429291 -0.0646806 0.000423 -8.17725 -0.197512 2.87757 2650 
3154 1 -0.024774 -0.038166 -0.0642744 0.000116 -7.59477 0.632318 2.93225 2650 
2501 1 -0.0244553 -0.0205912 -0.0643976 0.000116 -4.88943 -0.254043 1.86621 2650 
1863 1 -0.0257965 -0.00564296 -0.0639513 4.2e-05 -5.0164 0.175388 2.02751 2650 
2074 1 -0.0255306 -0.0029521 -0.0639779 0.000116 -4.95871 0.0837397 1.97007 2650 
3918 1 -0.0270751 -0.0167867 -0.0633397 0.000116 -6.98867 0.112421 2.98487 2650 
1905 1 -0.0268159 -0.0330398 -0.0631183 0.000423 -6.73136 0.049607 2.88504 2650 
2900 1 -0.0284864 -0.0090045 -0.0623823 0.000423 -6.02675 -0.193898 2.71527 2650 
1768 1 -0.0288654 -0.0227646 -0.0619504 0.000656 -7.11338 -0.0346365 3.31836 2650 
807 1 -0.028951 -0.0172204 -0.0621674 0.000423 -6.0601 -0.205167 2.81168 2650 
322 1 -0.0336755 -0.0193058 -0.0601759 4.2e-05 -6.32916 0.507467 3.54372 2650 
4023 1 -0.0341126 -0.00506575 -0.0598438 0.000116 -5.10409 0.12373 2.91447 2650 
734 1 -0.0340155 -0.00344612 -0.0598995 0.000116 -6.68586 -0.245092 3.79844 2650 
4240 1 -0.0355323 -0.0103873 -0.0590121 0.000116 -4.34683 -0.444616 2.59549 2650 
4377 1 -0.0356181 -0.00754551 -0.0590466 4.2e-05 -5.89149 -0.543153 3.55853 2650 
274 1 -0.0353388 -0.00431856 -0.0587713 0.000423 -4.95543 -0.731261 2.98497 2650 
1529 1 -0.0362174 -0.000199918 -0.0586801 4.2e-05 -5.22541 -0.0205844 3.18973 2650 
2353 1 -0.0360245 -0.0297257 -0.0583525 0.000423 -6.55364 0.0119936 4.03755 2650 
209 1 -0.0372621 -0.00523512 -0.0579254 0.000116 -5.42004 0.104086 3.49121 2650 
1730 1 -0.0367026 -0.00459199 -0.0582879 0.000116 -4.80348 -0.718577 2.94673 2650 
956 1 -0.0383284 -0.015679 -0.0572251 0.000116 -5.48011 0.0558014 3.6749 2650 
203 1 -0.0387772 -0.00712967 -0.0568874 0.000116 -4.59699 0.0528801 3.17927 2650 
1186 1 -0.0382493 -0.00726954 -0.0572419 0.000116 -4.74512 -0.28718 3.13796 2650 
1408 1 -0.0388478 -0.00636965 -0.0568463 0.000116 -5.28585 -0.146857 3.65855 2650 
4237 1 -0.0397985 -0.018121 -0.0562215 0.000116 -4.77269 -0.301021 3.38348 2650 
4048 1 -0.0399138 -0.00924887 -0.0562207 4.2e-05 -5.34521 0.00956536 3.91938 2650 
940 1 -0.0411378 -0.0255164 -0.0552497 0.000116 -6.58569 -0.0349027 4.92185 2650 
524 1 -0.0403406 -0.0150012 -0.0558287 0.000116 -4.64785 0.147033 3.32737 2650 
2196 1 -0.0406336 -0.01242 -0.0557007 4.2e-05 -2.75416 -0.192287 1.97137 2650 
2996 1 -0.0401524 -0.00581932 -0.0555882 0.000423 -5.33908 -0.0305761 3.79572 2650 
4235 1 -0.0401509 -0.00334823 -0.0559722 0.000116 -4.0576 0.083455 2.85721 2650 
4250 1 -0.0419985 -0.0162351 -0.0545986 0.000116 -4.61152 -0.329247 3.60618 2650 
1683 1 -0.0406653 -0.0140509 -0.0552028 0.000423 -5.42267 -0.209672 4.00392 2650 
3034 1 -0.0421741 -0.00996683 -0.05446 0.000116 -4.59841 -0.124985 3.54062 2650 
4074 1 -0.0413669 -0.00531462 -0.0546949 0.000423 -4.78338 -0.000543848 3.62182 2650 
4142 1 -0.0428126 -0.0238649 -0.0539613 0.000116 -6.74979 -0.51783 5.33827 2650 
1343 1 -0.042504 -0.0207021 -0.0538186 0.000423 -7.02316 -0.0976681 5.54697 2650 
2563 1 -0.0420561 -0.00122225 -0.0541678 0.000423 -6.19875 -0.147892 4.81056 2650 
1083 1 -0.0427866 -0.000269975 -0.0539844 0.000116 -6.04941 -0.0908208 4.78564 2650 
4220 1 -0.0426719 -0.000522289 -0.0540748 0.000116 -5.80978 -0.107267 4.59599 2650 
358 1 -0.0435356 -0.0252934 -0.0529866 0.000423 -6.13375 -0.0624552 5.01744 2650 
4229 1 -0.0437289 -0.0162219 -0.0532229 0.000116 -5.12905 0.306405 4.21728 2650 
3265 1 -0.0444281 -0.00231814 -0.0526408 0.000116 -5.07577 -0.0339383 4.28417 2650 
3724 1 -0.0459661 -0.0408577 -0.0514035 4.2e-05 -5.93124 0.765277 5.30974 2650 
2711 1 -0.0455279 -0.0110366 -0.0516942 0.000116 -4.2429 -0.336495 3.72197 2650 
1535 1 -0.0460776 -0.000204308 -0.0513034 4.2e-05 -5.03798 0.0980657 4.51923 2650 
2192 1 -0.0459014 -4.21785e-05 -0.0514609 4.2e-05 -4.97047 -0.00342193 4.44358 2650 
1735 1 -0.0459434 -0.000116029 -0.0513247 0.000116 -4.96501 -0.0046887 4.44424 2650 
2376 1 -0.0455053 -0.000115997 -0.0517134 0.000116 -5.01061 -0.000906508 4.41185 2650 
615 1 -0.0457384 -0.000116041 -0.0515071 0.000116 -4.98946 0.00600424 4.42993 2650 
4360 1 -0.0458411 -0.000303254 -0.0514158 0.000116 -4.9775 -0.00558098 4.43766 2650 
2823 1 -0.0460972 -0.000518067 -0.0511862 0.000116 -5.04989 0.107434 4.54595 2650 
2396 1 -0.0461159 -0.000116149 -0.0511694 0.000116 -4.94726 0.00126533 4.45764 2650 
502 1 -0.0462861 -0.000154355 -0.0510158 0.000116 -4.934 -0.0102345 4.47321 2650 
1528 1 -0.047011 -0.0418569 -0.0503486 0.000116 -6.97526 0.142389 6.52402 2650 
2690 1 -0.0477979 -0.0299991 -0.0491769 0.000423 -5.209 0.0311166 5.02882 2650 
762 1 -0.0478202 -0.0100785 -0.0496844 4.2e-05 -4.03794 -0.470716 3.86841 2650 
1290 1 -0.0483033 -0.00743061 -0.0491112 0.000116 -4.74812 -0.10465 4.69787 2650 
3440 1 -0.048603 -0.0398312 -0.048381 0.000423 -6.67396 -0.0854275 6.6997 2650 
893 1 -0.0485244 -0.0388934 -0.0484588 0.000423 -5.69129 0.304345 5.68565 2650 
2023 1 -0.0484196 -0.0380396 -0.0485645 0.000423 -5.74142 -0.00514196 5.74016 2650 
505 1 -0.0492907 -0.00326368 -0.0481187 0.000116 -3.71501 -0.0939426 3.80539 2650 
2911 1 -0.0490429 -0.0383471 -0.0479345 0.000423 -5.50081 0.166842 5.60626 2650 
1164 1 -0.0501489 -0.00161444 -0.0472238 0.000116 -3.70084 -0.184938 3.91846 2650 
3874 1 -0.0510338 -0.0277804 -0.0458098 0.000423 -4.89621 -0.490884 5.43182 2650 
2703 1 -0.0512328 -0.0242212 -0.0460457 0.000116 -6.30751 -0.146093 7.01418 2650 
397 1 -0.0508826 -0.0175582 -0.0464323 0.000116 -5.51627 0.609653 6.04011 2650 
2947 1 -0.0513579 -0.0119621 -0.0459061 0.000116 -4.95223 -0.607311 5.53889 2650 
2741 1 -0.0512275 -9.72017e-05 -0.0461621 4.2e-05 -3.68084 -0.0194034 4.07177 2650 
4217 1 -0.0514248 -0.031752 -0.0453696 0.000423 -4.19289 -1.37828 4.70902 2650 
1054 1 -0.0519984 -0.00263038 -0.045179 0.000116 -3.76413 0.107735 4.33595 2650 
1177 1 -0.0520173 -0.00238001 -0.0451575 0.000116 -3.77894 0.120974 4.33905 2650 
417 1 -0.0525293 -0.00219032 -0.0445611 0.000116 -3.02098 -0.193235 3.54466 2650 
1071 1 -0.0539167 -0.0232639 -0.0428699 0.000116 -4.68114 -0.160024 5.87646 2650 
286 1 -0.0535732 -0.0211766 -0.0433 0.000116 -4.81018 0.52093 5.94375 2650 
631 1 -0.0540315 -0.00731792 -0.0427242 0.000116 -3.28901 -0.269249 4.10297 2650 
4019 1 -0.0536577 -0.00789124 -0.0431953 0.000116 -3.66661 0.094421 4.58691 2650 
2546 1 -0.054201 -0.0232878 -0.0420103 0.000423 -4.6852 -0.212474 6.00154 2650 
3198 1 -0.0541367 -0.0217987 -0.0420947 0.000423 -4.84237 0.18275 6.17975 2650 
2480 1 -0.0545724 -0.0115288 -0.0420151 0.000116 -4.00484 -0.0469031 5.05648 2650 
3482 1 -0.0546751 -0.00844729 -0.041876 0.000116 -2.78804 -0.479901 3.45362 2650 
29 1 -0.0547188 -0.0378972 -0.041323 0.000423 -3.96301 -0.0262485 5.2483 2650 
3904 1 -0.0552185 -0.0246902 -0.0411567 0.000116 -4.63258 0.504502 6.14887 2650 
3974 1 -0.0546623 -0.0236777 -0.0414043 0.000423 -4.57675 -0.215575 6.07574 2650 
3229 1 -0.0552297 -0.0205802 -0.0406526 0.000423 -4.7828 0.228016 6.49737 2650 
1914 1 -0.0555751 -0.0199238 -0.0401789 0.000423 -4.80171 0.176718 6.60483 2650 
2429 1 -0.0549452 -0.0143127 -0.0405962 0.000656 -3.88925 -0.00458207 5.22917 2650 
789 1 -0.0563361 -0.00858825 -0.0391038 0.000423 -3.61959 -0.218976 5.07886 2650 
4058 1 -0.0559086 -0.00678048 -0.0392896 0.000656 -2.51166 -0.0720002 3.94414 2650 
3242 1 -0.0572687 -0.0311305 -0.0382592 0.000116 -4.26103 0.0682372 6.38462 2650 
2905 1 -0.0571538 -0.0249374 -0.0378887 0.000423 -4.19194 0.286495 6.34565 2650 
2186 1 -0.0573317 -0.0231897 -0.0381838 0.000116 -4.08153 -0.375754 6.0887 2650 
1172 1 -0.0575035 -0.00692423 -0.037901 0.000116 -2.61337 -0.141005 3.94399 2650 
2736 1 -0.0577023 -0.0336311 -0.0376037 0.000116 -3.17163 -0.487002 4.90493 2650 
1094 1 -0.0577296 -0.0188242 -0.0377147 4.2e-05 -3.62862 0.0809351 5.51946 2650 
802 1 -0.0580756 -0.0146785 -0.0364684 0.000423 -3.58879 0.194328 5.76011 2650 
427 1 -0.0590423 -0.0199111 -0.0354826 0.000116 -3.75804 0.164417 6.26938 2650 
3834 1 -0.0589965 -0.0170626 -0.0357015 4.2e-05 -2.47324 -0.81348 4.0645 2650 
410 1 -0.058874 -0.0155749 -0.0357593 0.000116 -3.60283 0.67059 5.95557 2650 
711 1 -0.0589709 -0.0196187 -0.0350041 0.000423 -3.71321 0.252605 6.2365 2650 
223 1 -0.0588447 -0.00415448 -0.0347614 0.000656 -4.53427 -0.0579647 7.65154 2650 
1169 1 -0.0590615 -0.000894642 -0.0354496 0.000116 -2.42611 -0.133929 4.05383 2650 
269 1 -0.0592254 -0.0247123 -0.0345723 0.000423 -3.48421 0.15184 5.97404 2650 
2060 1 -0.0596199 -0.0107681 -0.0345024 0.000116 -3.2389 -0.23578 5.57029 2650 
1333 1 -0.059173 -0.00800245 -0.0346549 0.000423 -2.2235 -0.152225 3.7784 2650 
429 1 -0.059962 -0.00509902 -0.0339041 0.000116 -4.57714 -0.433784 8.09639 2650 
4028 1 -0.0601838 -0.00937616 -0.0335105 0.000116 -3.66857 -0.102892 6.5659 2650 
2664 1 -0.0601201 -0.0198342 -0.0329932 0.000423 -3.46036 0.38631 6.32106 2650 
3252 1 -0.0608562 -0.0326915 -0.0322728 0.000116 -3.3994 -0.134027 6.41479 2650 
367 1 -0.0606401 -0.0259471 -0.0320256 0.000423 -3.32306 -0.0040433 6.30579 2650 
3747 1 -0.0607945 -0.017398 -0.0317326 0.000423 -3.2866 0.199481 6.24365 2650 
2822 1 -0.0612586 -0.0169203 -0.0315014 0.000116 -3.24309 0.274378 6.30206 2650 
3031 1 -0.040558 -0.00448341 -0.0322212 0.000116 -6.2402 -0.125483 -4.96066 2650 
2714 1 -0.0610327 -0.00344955 -0.0319371 0.000116 -2.45981 -0.0192723 4.68898 2650 
2710 1 -0.0614911 -0.018881 -0.0310453 0.000116 -2.83628 -0.108463 5.63591 2650 
3926 1 -0.0615084 -0.000190902 -0.0310112 0.000116 -2.30216 0.838603 4.57706 2650 
4087 1 -0.061355 -0.0252361 -0.0306343 0.000423 -3.38115 -0.0678562 6.75242 2650 
3707 1 -0.0619252 -0.0148625 -0.0301711 0.000116 -2.72422 0.212049 5.61779 2650 
3817 1 -0.0627901 -0.0172785 -0.0283256 0.000116 -2.61833 -0.0253663 5.81041 2650 
3764 1 -0.0625899 -0.00833728 -0.028028 0.000423 -2.09806 0.154929 4.7138 2650 
1818 1 -0.0632351 -0.0149496 -0.0273184 0.000116 -2.65187 -0.304381 6.15073 2650 
897 1 -0.0634227 -0.0388024 -0.026086 0.000423 -3.36657 -0.00871049 8.17067 2650 
2361 1 -0.063267 -0.0335969 -0.0264612 0.000423 -2.7501 -0.178522 6.53487 2650 
3708 1 -0.0637453 -0.0190039 -0.026106 0.000116 -3.21006 0.423722 7.84221 2650 
1068 1 -0.0638291 -0.0197032 -0.0259004 0.000116 -3.01573 -0.203881 7.4356 2650 
1008 1 -0.0636959 -0.0176482 -0.0254119 0.000423 -2.44873 -0.0517025 6.07021 2650 
293 1 -0.0640869 -0.0103263 -0.025256 0.000116 -2.41307 0.0252386 6.12464 2650 
1918 1 -0.0638422 -0.0197942 -0.0250417 0.000423 -2.75708 0.0351489 7.00705 2650 
1364 1 -0.0640065 -0.0105739 -0.024619 0.000423 -2.394 -0.333491 6.24939 2650 
35 1 -0.0642241 -0.0432805 -0.0240378 0.000423 -2.96679 -0.074428 7.92976 2650 
2457 1 -0.0643006 -0.0306772 -0.0238396 0.000423 -2.49901 -0.0772129 6.7158 2650 
1076 1 -0.0644618 -0.0106928 -0.0242832 0.000116 -2.38353 -0.304149 6.30737 2650 
3331 1 -0.0645079 -0.0428823 -0.0232724 0.000423 -2.89738 -0.105468 7.94978 2650 
2398 1 -0.0650907 -0.0188285 -0.0225415 0.000116 -2.13971 -0.218721 6.18785 2650 
1792 1 -0.0647336 -0.0140697 -0.0226381 0.000423 -2.12322 -0.208436 6.12399 2650 
2487 1 -0.0652391 -0.0132866 -0.0221103 0.000116 -2.16385 -0.380485 6.3054 2650 
3779 1 -0.0651578 -0.0390316 -0.0213873 0.000423 -2.96948 0.345919 9.03958 2650 
3479 1 -0.065333 -0.0208424 -0.0219479 0.000116 -2.5578 -0.565127 6.29835 2650 
3572 1 -0.0654709 -0.0174617 -0.021412 0.000116 -2.11095 -0.112276 6.48668 2650 
2538 1 -0.0647326 -0.0159616 -0.0219297 0.000656 -2.16697 -0.099162 6.38082 2650 
3348 1 -0.0655952 -0.00701071 -0.0210052 0.000116 -2.17176 0.0767158 6.40156 2650 
1296 1 -0.0660165 -0.0263246 -0.0196657 0.000116 -2.06384 -0.536959 6.94679 2650 
1634 1 -0.0659458 -0.0225548 -0.0199032 0.000116 -2.10937 0.307604 6.94835 2650 
4244 1 -0.00546963 -0.00649257 -0.0194122 0.000116 -0.455806 -0.837561 -1.68582 2650 
186 1 -0.0660492 -0.00362113 -0.0195394 0.000116 -1.4379 -0.117793 4.98571 2650 
1628 1 -0.0661077 -0.000864814 -0.0193547 0.000116 -1.78698 -0.170729 5.97818 2650 
2234 1 -0.0660097 -0.0117309 -0.0185008 0.000423 -1.92586 -0.144598 7.03403 2650 
2143 1 -0.0663171 -0.0132984 -0.0174629 0.000423 -1.75096 -0.24403 6.3674 2650 
1393 1 -0.0668635 -0.0337211 -0.0165618 0.000116 -1.42113 -0.132822 5.70524 2650 
2685 1 -0.0664289 -0.0275692 -0.0170359 0.000423 -1.8942 -0.0485183 7.36218 2650 
3269 1 -0.0667375 -0.0113638 -0.0170396 0.000116 -1.88226 -0.0314362 7.16924 2650 
3284 1 -0.00213095 -0.00351687 -0.0171298 4.2e-05 -0.262405 -0.052796 -2.10935 2650 
606 1 -0.000183 0.000981027 -0.016592 0.000116 0 -0.011753 0 2650 
3503 1 -9.76545e-05 0.00297283 -0.0165971 4.2e-05 -0.0351311 0.0114577 -0.000362163 2650 
2726 1 -0.000648242 0.00930597 -0.0167128 0.000116 0.0026577 0.00672332 0.0197797 2650 
999 1 -0.000159706 0.000130536 -0.0160307 0.000656 -0.00841998 -0.0161411 -0.0218233 2650 
4227 1 -0.000239322 0.00315587 -0.0163433 0.000116 0.00593372 -0.017543 0.0130313 2650 
2301 1 -0.00436972 0.00321001 -0.0159343 4.2e-05 -0.00116259 -0.0070103 0.00459775 2650 
2013 1 -0.00304057 0.00315839 -0.0158261 0.000423 -0.00154235 0.00221798 0.00156406 2650 
2283 1 -0.00353251 0.00474736 -0.0163586 0.000116 -0.00010552 0.00956354 0.000789399 2650 
2520 1 -0.000123283 0.00490793 -0.0164266 4.2e-05 0.00318265 0.000380138 0.00682554 2650 
978 1 -0.00171168 0.00616882 -0.0164656 0.000116 0.0180122 -0.00353228 -0.00159853 2650 
3934 1 -0.001977 0.00574303 -0.016218 0.000116 0 -0.011753 0 2650 
3365 1 -0.00134882 0.0065675 -0.0160751 0.000116 0.015804 0.0241832 0.0212134 2650 
3150 1 -0.00257043 0.00992942 -0.0164256 0.000116 -0.0182263 -0.0087302 -0.0269448 2650 
938 1 -0.00155322 0.00994295 -0.01616 0.000116 -0.00119823 0.000558801 -0.00633771 2650 
302 1 -0.00245787 0.0107188 -0.016415 0.000116 -0.0347922 0.0241041 0.0152166 2650 
3051 1 -0.00170397 0.0107848 -0.0163878 0.000116 -0.0677691 -0.171446 -0.0100126 2650 
1483 1 -0.000499882 0.0106954 -0.0163779 0.000423 -0.000431738 0.0094693 0.00416488 2650 
3007 1 -0.00308905 0.0117481 -0.0160608 0.000423 -0.00754521 0.0118776 -0.00214285 2650 
371 1 -0.000669624 0.0121323 -0.016356 0.000423 -0.00486135 0.00835155 -0.00501272 2650 
188 1 -0.00345562 0.0139911 -0.016046 0.000116 -0.0148612 0.0228045 0.00418427 2650 
2713 1 -0.000695671 0.0166081 -0.0157966 0.000116 0.00037122 0.035974 0.00535071 2650 
1785 1 -1.99636e-05 0.02795 -0.0161463 0.000423 -0.0110877 0.0503473 -0.062572 2650 
1717 1 -0.00404544 0.0322908 -0.0161856 0.000116 0.0090039 0.0753863 0.0163861 2650 
1248 1 -7.25175e-06 0.0500382 -0.0163683 0.000423 -0.0646233 -0.0560258 -0.01363 2650 
2264 1 -0.00155989 0.0536113 -0.0160241 0.000116 -0.0637592 0.11185 0.0253368 2650 
30 1 -0.00253903 -0.00276295 -0.0152864 0.000423 -0.0139928 -0.0214008 0.00726417 2650 
3011 1 -9.11745e-05 -0.00315507 -0.0156056 0.000423 0.0180353 -0.0317081 -0.0392676 2650 
2399 1 -0.002418 0.00119503 -0.015541 0.000116 0 -0.011753 0 2650 
3637 1 -0.0055698 0.00450071 -0.0151829 0.000423 -0.00704251 0.0124689 0.006236 2650 
1679 1 -0.0043855 0.00534149 -0.015701 0.000423 -0.00453172 0.0157125 0.00260684 2650 
889 1 -0.000822477 0.00492777 -0.0154642 0.000656 0.0221019 0.0158351 0.0220207 2650 
3830 1 -0.006879 0.00729503 -0.015411 4.2e-05 0 -0.011753 0 2650 
2438 1 -0.00632658 0.0072406 -0.0151777 0.000423 -0.00468347 -0.000292455 -0.00123863 2650 
3364 1 -0.00681793 0.00884524 -0.0151722 0.000116 -0.00179506 0.0163753 -0.0232219 2650 
70 1 -0.00145237 0.0139154 -0.0154322 0.000116 0.0560864 0.0328811 0.00597028 2650 
2793 1 -0.000840231 0.0137523 -0.0151807 0.000423 0.00400332 0.0260717 0.000754087 2650 
3838 1 -0.00493996 0.0147443 -0.0153455 0.000656 0.0157867 0.0260395 0.00729433 2650 
2182 1 -0.00145798 0.0147009 -0.0157834 0.000116 0.00266263 0.0360122 0.0211071 2650 
2466 1 -0.00166804 0.0233904 -0.0154026 0.000423 0.0618857 0.0331724 -0.00268308 2650 
1195 1 -0.00198772 0.0365445 -0.015222 0.000116 0.0557766 0.0782116 -0.0138054 2650 
1053 1 -0.007469 -0.00264697 -0.014946 0.000116 0 -0.011753 0 2650 
421 1 -0.00358543 0.00099592 -0.0149408 0.000116 -0.434857 0.264773 0.172681 2650 
857 1 -0.00835992 0.00375199 -0.0143358 0.000116 -0.0319262 0.0179271 0.0379105 2650 
3787 1 -0.00689244 0.00392767 -0.0149348 0.000116 -0.0024271 -0.00223267 -0.0195234 2650 
1611 1 -0.00064294 0.00381058 -0.0146818 0.000116 0.0444256 -0.019621 0.0278665 2650 
1192 1 -0.00713104 0.00669215 -0.014566 0.000116 0.00510585 0.0133553 0.012363 2650 
1827 1 -0.00208566 0.00700896 -0.0146275 0.000116 0.0445821 -0.0304485 -0.00868089 2650 
581 1 -0.00559091 0.00812304 -0.014423 0.000423 0.000441693 0.00100922 0.00165067 2650 
233 1 -0.00327106 0.00881008 -0.0145338 0.000423 0.00841442 -0.00267664 0.00454736 2650 
2781 1 -0.00555729 0.0115053 -0.0146224 0.000423 0.00955411 0.0107278 0.0121748 2650 
86 1 -0.00534119 0.0110903 -0.0149561 0.000116 -0.00883451 0.00207244 -0.00541251 2650 
2969 1 -0.00277863 0.0112394 -0.0147733 0.000656 -0.00667616 0.014076 0.00443217 2650 
1802 1 -0.0031582 0.0123872 -0.0142432 0.000423 0.00500259 -0.000364755 -0.0111755 2650 
2453 1 -0.00591229 0.012751 -0.0143453 0.000423 0.00287214 0.0261989 -0.0126472 2650 
2191 1 -0.00245725 0.0135181 -0.0145644 4.2e-05 -0.00764734 0.00298638 -0.00836536 2650 
2345 1 -0.0019657 0.0139478 -0.0142546 0.000423 -0.0175833 0.0131789 -0.0282092 2650 
1228 1 -0.00289744 0.0144255 -0.014625 0.000423 -0.0165339 0.0339414 0.00465399 2650 
3644 1 -0.00149924 0.0150542 -0.0145595 0.000423 -0.0118967 0.0391079 0.0034562 2650 
93 1 -0.00856363 0.0222321 -0.014483 0.000116 -0.0930021 0.08494 0.0463235 2650 
2585 1 -0.00227956 0.0290529 -0.0148423 0.000116 -0.0221426 0.0759057 0.0070692 2650 
3211 1 -0.00567375 0.0556735 -0.0146594 0.000423 0.121461 0.0923792 -0.0696515 2650 
4106 1 -0.0671273 -0.0378998 -0.0140291 0.000423 -1.52362 -0.0469934 7.20963 2650 
736 1 -0.00922527 -0.00209056 -0.0138915 0.000116 -0.0307431 -0.0170391 0.0144389 2650 
509 1 -0.00793382 -0.000970216 -0.0139953 0.000116 -0.00480979 -0.0076817 0.0108723 2650 
1991 1 -0.00879898 0.000131511 -0.0136136 0.000656 -0.0163411 -0.00223454 0.0120027 2650 
763 1 -0.0068462 0.00337441 -0.013455 4.2e-05 0.0429385 0.0136209 0.0378616 2650 
220 1 -0.0032668 0.00381894 -0.0135961 4.2e-05 0.00197382 0.00663681 0.00671825 2650 
2666 1 -0.00752911 0.00398955 -0.013959 0.000423 0.0107963 0.0809594 0.0204513 2650 
1288 1 -0.002467 0.00492403 -0.014044 0.000116 0 -0.011753 0 2650 
3515 1 -0.00861933 0.00624869 -0.0134967 0.000656 -0.00454215 -0.00749919 0.00616721 2650 
1618 1 -0.00939335 0.0076459 -0.0139068 0.000116 -0.00572111 -0.00394584 0.0040493 2650 
1769 1 -0.00872642 0.00774504 -0.0135306 0.000656 -0.00750319 -0.00749823 0.00854524 2650 
2483 1 -0.00553879 0.00721535 -0.0137744 0.000116 0.00771374 -0.0189039 -0.0218467 2650 
1409 1 -0.000561499 0.00867781 -0.0139319 0.000116 -0.00338114 -0.0124825 -0.00177889 2650 
842 1 -0.00805898 0.00885573 -0.0141609 0.000116 -0.0132472 -0.000581938 -0.0143857 2650 
2851 1 -0.0100684 0.0097523 -0.0135653 4.2e-05 -0.0373658 -0.0766061 0.00342403 2650 
4190 1 -0.00939821 0.0095136 -0.0135527 0.000423 -0.00626579 0.00565015 0.00416389 2650 
793 1 -0.000110684 0.00949373 -0.0140267 0.000423 -0.00384688 0.00642406 -0.0108379 2650 
289 1 -0.00393224 0.0106174 -0.013573 0.000116 -0.0130397 0.0193908 0.0119694 2650 
128 1 -0.000941485 0.0145047 -0.0141121 0.000423 -0.00458662 0.0273274 -0.00640456 2650 
3145 1 -0.00894779 0.0153395 -0.0139199 0.000116 0.00413084 0.0258652 0.0123186 2650 
3471 1 -0.00732317 0.0154982 -0.0140856 0.000116 0.00654915 0.0415659 -0.0136084 2650 
4321 1 -0.000186728 0.0157046 -0.0141571 0.000423 -0.033158 0.0125251 -0.00503274 2650 
2924 1 -0.0100737 0.0174199 -0.0135384 0.000116 -0.0447463 0.0323973 0.0311383 2650 
3165 1 -0.0069209 0.0232124 -0.0138391 0.000116 -0.042342 0.12169 0.0695027 2650 
4234 1 -0.00470454 0.0349937 -0.013594 0.000116 0.00512064 0.0508026 0.0366661 2650 
1654 1 -0.00774848 0.0551288 -0.0139762 0.000656 0.102592 0.082001 -0.0771439 2650 
2702 1 -0.0676244 -0.0327599 -0.0131164 0.000116 -1.18036 -0.296349 6.05444 2650 
786 1 -0.0673709 -0.0254278 -0.0128098 0.000423 -1.43363 -0.0200336 7.55636 2650 
1763 1 -0.00373726 -5.93284e-05 -0.0129772 0.000656 0.0110536 0.0386342 0.0470271 2650 
623 1 -0.00875745 3.9766e-05 -0.0128237 0.000116 -0.00176155 0.0164163 -0.0155171 2650 
2609 1 -0.00859469 0.00142504 -0.0133365 0.000116 -0.00705034 0.0126459 0.00789545 2650 
2922 1 -0.00830104 0.00130439 -0.0131808 0.000116 -0.00925852 -0.000802711 0.00675368 2650 
2512 1 -0.00606016 0.000792931 -0.0132453 0.000116 0.018779 -0.0192413 0.00230208 2650 
3917 1 -0.003984 0.00145203 -0.012703 0.000116 0 -0.011753 0 2650 
3530 1 -0.00172373 0.000933206 -0.0127915 0.000423 -0.0590629 0.185452 -0.11628 2650 
3316 1 -0.0101881 0.00171112 -0.0130179 0.000423 -0.0053514 -0.00402062 -0.00143698 2650 
2059 1 -0.003583 0.00166103 -0.012756 0.000116 0 -0.011753 0 2650 
2473 1 -0.00986695 0.0028378 -0.0127542 0.000423 -0.0437212 0.0367029 0.0424505 2650 
4374 1 -0.00958024 0.00317561 -0.0131831 4.2e-05 -0.00342399 0.0134868 -0.018776 2650 
2913 1 -0.00985549 0.00334817 -0.0134085 0.000116 -0.0269546 0.0385212 -0.00427738 2650 
3289 1 -0.00499424 0.00344088 -0.0131074 4.2e-05 0.00210041 -0.0118729 -0.0396069 2650 
4179 1 -0.00817369 0.00463744 -0.0128347 0.000423 -0.000889884 -0.0208242 0.00186897 2650 
1427 1 -0.002948 0.00399203 -0.013376 4.2e-05 0 -0.011753 0 2650 
3362 1 -0.00259581 0.00461269 -0.0130774 0.000116 0.000350619 -0.00253681 -0.00404217 2650 
3071 1 -0.010348 0.00505131 -0.0130178 4.2e-05 -0.0100464 -0.00669175 -0.0253889 2650 
2322 1 -0.00937634 0.00480523 -0.0131556 0.000656 -0.00463581 -0.0140818 0.00324309 2650 
1388 1 -0.00822505 0.00561081 -0.0128181 0.000116 -0.039288 0.0021603 0.0169103 2650 
1250 1 -0.00964222 0.00700303 -0.0132404 0.000423 -0.00836241 -0.0100793 -0.00125625 2650 
2918 1 -0.00589526 0.00699314 -0.0127946 0.000116 0.00505241 -0.0228405 0.00344303 2650 
3310 1 -0.00612945 0.00768427 -0.0128065 0.000423 -0.0172336 -0.0110983 -0.00553238 2650 
2912 1 -0.00526253 0.00757194 -0.0130266 0.000116 0.00196064 0.0151142 0.00117299 2650 
1241 1 -0.00978719 0.0079032 -0.0131403 0.000423 -0.00486634 -0.0127471 -0.0163098 2650 
1237 1 -0.0100008 0.00995229 -0.0131132 0.000423 -0.00981224 0.00808581 -9.19511e-05 2650 
1775 1 -0.00866515 0.00964879 -0.0131408 0.000423 -0.00776621 -0.00915809 -0.000158119 2650 
1515 1 -0.00764587 0.00993013 -0.0128915 0.000116 0.0177619 0.00291086 0.0107264 2650 
1476 1 -0.00760972 0.0101676 -0.0134177 0.000423 -0.00215256 0.00359159 -0.000268574 2650 
3500 1 -0.00638978 0.0108887 -0.0128908 4.2e-05 -0.0484689 0.00233787 0.0298831 2650 
2313 1 -0.00258259 0.0102733 -0.0130278 0.000656 0.0130233 0.0240514 0.0128306 2650 
3847 1 -0.00907187 0.0114176 -0.0132961 0.000656 0.00598667 0.0140257 0.000109329 2650 
2798 1 -0.00656185 0.01341 -0.0130816 0.000423 0.00307291 0.0287307 -0.0047091 2650 
2205 1 -0.00544199 0.0133704 -0.0130728 0.000656 0.00139343 0.00338011 -0.0129397 2650 
1806 1 -0.00547435 0.0150561 -0.0127967 0.000423 -0.00202734 0.023474 -0.0405341 2650 
1839 1 -0.00829699 0.0167168 -0.0132842 0.000116 -0.0676852 0.0211351 0.0188737 2650 
526 1 -0.00346478 0.0194352 -0.0131247 0.000116 -0.0196465 0.0272628 -0.0386948 2650 
3742 1 -7.97067e-06 0.020879 -0.013009 0.000423 -0.0115725 0.0238192 -0.00880768 2650 
3686 1 -0.00960349 0.0233535 -0.0132987 0.000116 0.0215061 0.0913964 -0.00906023 2650 
1776 1 -0.0063572 0.027857 -0.0130163 0.000423 -0.019036 0.131664 0.086751 2650 
866 1 -0.0102817 0.0308591 -0.0133657 0.000116 0.0191776 0.0644248 -0.0473579 2650 
4010 1 -0.00522332 0.0462973 -0.0131924 0.000116 0.0373387 0.0604042 0.0259593 2650 
3107 1 -0.00813043 0.0477821 -0.0132069 0.000423 0.0679911 0.0796098 -0.0159807 2650 
3434 1 -0.000355453 0.049919 -0.0133702 0.000423 -0.0536535 0.0715806 0.0290732 2650 
2614 1 -0.00349014 0.0508981 -0.0130034 0.000116 -0.0792369 -0.0730102 0.0417576 2650 
3037 1 -0.0677902 -0.0224161 -0.0122252 0.000116 -1.40452 0.0900825 7.77812 2650 
222 1 -0.0110315 -0.00573399 -0.0125077 0.000656 -0.278422 -1.25158 -0.436304 2650 
1422 1 -0.00421877 -0.00285768 -0.0121462 4.2e-05 -0.0036076 -0.017528 0.00216624 2650 
3191 1 -0.0100809 -0.00107649 -0.0125142 0.000656 -0.00910125 -0.0063157 0.00903986 2650 
248 1 -0.00885686 -0.000874069 -0.0122824 0.000423 0.00587601 0.00187351 -0.00793864 2650 
2619 1 -0.00731588 -0.000951909 -0.0122901 0.000116 -0.0137973 -0.0204082 0.00531131 2650 
3389 1 -0.010415 -5.09735e-05 -0.012026 0.000116 0 -0.011753 0 2650 
2525 1 -0.00427179 -0.000418308 -0.0120547 4.2e-05 -0.0107216 0.0103625 0.0604028 2650 
3956 1 -0.0101934 0.000875869 -0.0122187 0.000656 -0.00901716 -0.00399901 0.00277037 2650 
3880 1 -0.0111793 0.0016178 -0.0120511 0.000423 -0.0126294 -0.000463257 0.0126924 2650 
4126 1 -0.00961896 0.00169092 -0.0125178 0.000116 -0.0261531 0.0084042 0.00402279 2650 
1261 1 -0.00796636 0.0031073 -0.0121909 0.000423 -0.00427187 -0.0142005 0.00299326 2650 
411 1 -0.0116517 0.00332271 -0.0118468 0.000116 -0.00137629 -0.00573642 0.00519716 2650 
1032 1 -0.00413607 0.00379089 -0.0123356 0.000423 0.0140776 0.00865188 0.010778 2650 
3030 1 -0.001189 0.00410703 -0.012596 0.000116 0 -0.011753 0 2650 
3727 1 -0.00484404 0.00517689 -0.0120143 4.2e-05 -0.00143931 -0.00938471 -0.0055359 2650 
2194 1 -0.0013444 0.00486996 -0.0120339 4.2e-05 0.00491046 0.00111596 0.00228026 2650 