ITEM: TIMESTEP
2526732
ITEM: NUMBER OF ATOMS
4381
ITEM: BOX BOUNDS ff ff ff
-0.15 0.15
-0.15 0.06
-0.15 0.15
ITEM: ATOMS id type x y z radius vx vy vz density 
618 1 -0.0152717 -0.0574584 -0.0671696 0.000116 -4.52885 -0.0457625 1.05079 2650 
1740 1 -0.0480617 -0.0469043 -0.0493453 0.000116 -2.71748 -0.297723 2.61294 2650 
1462 1 -0.0521968 -0.0616356 -0.044479 0.000423 -3.52381 0.191235 4.14907 2650 
1135 1 -0.0551855 -0.0570785 -0.0407124 0.000423 -2.22083 -0.75285 3.0337 2650 
4037 1 -0.0595051 -0.0556603 -0.0346713 0.000116 -1.61479 -0.379778 3.16191 2650 
3089 1 -0.0596778 -0.0529277 -0.0337831 0.000423 -3.41871 0.238788 5.89648 2650 
1612 1 -0.0614401 -0.0521524 -0.0311412 0.000116 -2.34849 -0.375745 4.64286 2650 
3831 1 -0.0624135 -0.0622843 -0.0249852 4.2e-05 -3.03942 -0.195025 4.7386 2650 
2702 1 -0.0677076 -0.0461306 -0.012674 0.000116 -0.804656 -0.0698148 4.34456 2650 
3252 1 -0.0685219 -0.0493975 -0.00706015 0.000116 -0.412476 -0.187407 4.22129 2650 
2964 1 -0.0685526 -0.0454551 -0.00746502 4.2e-05 -0.440237 0.860727 4.03597 2650 
3946 1 -0.0686023 -0.056382 -0.00699889 4.2e-05 -0.369928 -0.369319 3.394 2650 
415 1 -0.0616631 -0.0596684 0.0307009 0.000116 2.87032 0.285507 5.79752 2650 
3038 1 -0.0575883 -0.0465502 0.0377973 0.000116 2.57966 0.114904 3.93455 2650 
3409 1 -0.0500994 -0.0452367 0.0464826 0.000656 2.53555 -0.684587 2.98192 2650 
1239 1 -0.0292012 -0.0616109 0.0620499 0.000423 4.28945 0.238092 2.02893 2650 
3313 1 -0.0150089 -0.0512071 0.0669161 0.000423 4.41955 0.423019 1.01608 2650 
983 1 -0.00192928 -0.0618719 0.0689304 4.2e-05 1.94976 1.12288 0.0667779 2650 
3570 1 -0.00350505 -0.0350003 -0.0687949 0.000116 -3.36185 -0.657922 0.187748 2650 
3724 1 -0.00503757 -0.0194763 -0.0687733 4.2e-05 -3.14881 -0.448267 0.228479 2650 
2557 1 -0.00744043 -0.0238558 -0.0681721 0.000423 -4.46128 -0.37597 0.498602 2650 
1136 1 -0.00337158 -0.0231889 -0.0684949 0.000423 -4.67457 -0.0953731 0.195973 2650 
3018 1 -0.00948501 -0.0219163 -0.0679181 0.000423 -3.58859 -0.594423 0.4715 2650 
1601 1 -0.00672699 -0.0196309 -0.0685548 0.000116 -3.684 -0.314078 0.35164 2650 
2858 1 -0.00514055 -0.0142828 -0.0681532 0.000656 -4.45525 -0.278192 0.336191 2650 
3580 1 -0.00626605 -0.010792 -0.0685992 0.000116 -3.71774 -0.66899 0.355903 2650 
1461 1 -0.00627599 -0.0102075 -0.0682911 0.000423 -4.37005 -0.17315 0.371618 2650 
2895 1 -0.00494044 -0.00645036 -0.0684 0.000423 -3.91709 0.0387402 0.289324 2650 
1535 1 -0.00645176 -4.20724e-05 -0.0686552 4.2e-05 -4.81442 0.00103912 0.446127 2650 
3372 1 -0.012228 -0.02644 -0.0677865 0.000116 -3.37116 -0.357269 0.573781 2650 
4087 1 -0.0100819 -0.0159396 -0.0678327 0.000423 -3.74848 -0.235068 0.520753 2650 
2928 1 -0.0165422 -0.0157417 -0.0668651 0.000116 -3.30971 -0.274879 0.690776 2650 
38 1 -0.0160545 -0.00525877 -0.0666731 0.000423 -4.11484 -0.302828 1.0163 2650 
893 1 -0.0207436 -0.033534 -0.0653649 0.000423 -3.47171 -0.496487 1.09985 2650 
2679 1 -0.0212233 -0.0207528 -0.0652106 0.000423 -3.37429 -0.424263 1.08594 2650 
3470 1 -0.022237 -0.00630834 -0.0651956 0.000116 -3.12627 -0.174161 1.06389 2650 
3319 1 -0.0247746 -0.0258001 -0.0639462 0.000423 -3.80216 -0.296488 1.45784 2650 
3531 1 -0.0233 -0.0238113 -0.0644988 0.000423 -3.90401 -0.0855522 1.41898 2650 
1841 1 -0.0237218 -0.0121514 -0.0646708 0.000116 -3.33491 -0.291323 1.25886 2650 
2232 1 -0.0262112 -0.0288934 -0.0633716 0.000423 -3.94962 -0.0969299 1.61866 2650 
3683 1 -0.0284148 -0.0316957 -0.0627509 0.000116 -3.76924 -0.55915 1.71326 2650 
1207 1 -0.0278415 -0.0137148 -0.063088 4.2e-05 -3.09046 -0.245548 1.3835 2650 
758 1 -0.0300177 -0.0368679 -0.0619995 0.000116 -4.66795 0.958443 2.26167 2650 
3066 1 -0.0300041 -0.023954 -0.0620878 4.2e-05 -5.63013 -0.315232 2.71501 2650 
1537 1 -0.0306076 -0.0134486 -0.0617934 4.2e-05 -3.04485 -0.230676 1.50227 2650 
850 1 -0.0315608 -0.0264405 -0.0612287 0.000116 -4.02572 -0.00795055 2.08221 2650 
1042 1 -0.0331983 -0.0163678 -0.0600047 0.000423 -2.79416 -0.327949 1.58563 2650 
1905 1 -0.0344371 -0.0257367 -0.0593042 0.000423 -3.46295 -0.243254 1.99246 2650 
1914 1 -0.0343933 -0.024405 -0.05933 0.000423 -3.41358 -0.295926 1.96774 2650 
827 1 -0.0376869 -0.00511496 -0.0576497 0.000116 -2.66945 -0.11599 1.71124 2650 
483 1 -0.0373778 -0.0391953 -0.0574958 0.000423 -3.25514 -0.240509 2.13808 2650 
3229 1 -0.0374657 -0.00644215 -0.057433 0.000423 -3.04387 -0.110245 1.94764 2650 
3834 1 -0.0411375 -0.0201018 -0.0553497 4.2e-05 -2.86661 -0.287855 1.96157 2650 
4068 1 -0.0398964 -0.00972419 -0.0557587 0.000423 -2.36996 -0.0830909 1.81275 2650 
4019 1 -0.0412432 -0.00557652 -0.0551709 0.000116 -2.89339 -0.234736 2.1721 2650 
4074 1 -0.0406424 -0.00591998 -0.0552359 0.000423 -2.52414 -0.0603461 1.80159 2650 
2601 1 -0.0433072 -0.00914563 -0.0535676 0.000116 -2.63157 -0.189942 2.09761 2650 
2353 1 -0.0440615 -0.0247124 -0.0525389 0.000423 -2.88883 -0.237606 2.42475 2650 
427 1 -0.0468154 -0.0232958 -0.0505286 0.000116 -2.91167 -0.303708 2.66113 2650 
1320 1 -0.0307794 -0.0042817 -0.0504909 4.2e-05 -4.70086 -0.117891 -7.61848 2650 
3265 1 -0.0279121 -0.0040752 -0.0496939 0.000116 -4.28189 -0.098021 -7.62335 2650 
759 1 -0.0492241 -0.00889243 -0.0481881 0.000116 -3.26656 -0.0804968 3.36282 2650 
1132 1 -0.0492804 -0.0306018 -0.0476898 0.000423 -3.75347 -0.640494 3.8594 2650 
2102 1 -0.0492985 -0.0184133 -0.0473375 0.000656 -3.35645 -0.22883 3.46637 2650 
4139 1 -0.0506928 -0.0148315 -0.0466401 0.000116 -2.24063 -0.320299 2.42904 2650 
397 1 -0.0508887 -0.00904904 -0.0464267 0.000116 -2.46565 -0.170492 2.69314 2650 
578 1 -0.0508175 -0.000837747 -0.0460494 0.000423 -2.75324 -0.0983591 3.01334 2650 
3276 1 -0.0515959 -0.0339257 -0.0456388 0.000116 -2.68276 -0.146117 3.02192 2650 
4210 1 -0.0516604 -0.0185618 -0.0451007 0.000423 -2.57251 -0.659731 2.97982 2650 
814 1 -0.0524408 -0.0160689 -0.0441912 0.000423 -2.73216 -0.324353 3.19924 2650 
2732 1 -0.0101529 -0.00651273 -0.0444092 0.000116 -1.51971 -0.42578 -6.63489 2650 
2820 1 -0.0280637 -0.0039783 -0.0436236 0.000116 -4.26678 -0.0917845 -6.63251 2650 
601 1 -0.0536196 -0.0249686 -0.0427524 0.000423 -2.74417 -0.165216 3.44975 2650 
1081 1 -0.0540222 -0.0119606 -0.0427394 0.000116 -2.13357 -0.285195 2.69165 2650 
1877 1 -0.0534515 -0.00799859 -0.0425938 0.000656 -1.99472 0.00894764 2.45779 2650 
121 1 -0.0545826 -0.00878399 -0.0411307 0.000656 -2.47983 -0.524472 3.4059 2650 
2835 1 -0.0559045 -0.0165464 -0.0402448 0.000116 -1.92842 -0.387304 2.69222 2650 
3261 1 -0.0554781 -0.00355555 -0.0405862 0.000116 -2.31733 0.41391 3.53656 2650 
1481 1 -0.0560878 -0.0234593 -0.0394597 0.000423 -2.09637 -0.740977 2.9532 2650 
1060 1 -0.0570084 -0.0290321 -0.0386657 0.000116 -2.35159 -0.52275 3.50718 2650 
3622 1 -0.0562855 -0.0226026 -0.0387705 0.000656 -2.03274 -0.729136 2.99294 2650 
2256 1 -0.00470862 -0.0105538 -0.0390609 0.000116 -0.671089 -0.780844 -5.54774 2650 
3479 1 -0.0575463 -0.0135686 -0.037857 0.000116 -1.81654 -0.309507 2.75008 2650 
2039 1 -0.0599354 -0.0369358 -0.0339507 0.000116 -1.95643 0.34107 3.33423 2650 
432 1 -0.0603376 -0.00997768 -0.0333722 4.2e-05 -2.00707 -0.17911 3.54814 2650 
2685 1 -0.0600606 -0.021196 -0.0331004 0.000423 -1.78959 -1.25664 3.26847 2650 
3015 1 -0.0235868 -0.00859787 -0.0328093 0.000423 -3.42037 -0.536288 -4.67721 2650 
2165 1 -0.0128697 -0.00597847 -0.0327514 0.000116 -1.97235 -0.220236 -5.08699 2650 
3850 1 -0.0607593 -0.0428915 -0.0317994 0.000423 -1.81782 -0.580646 3.44049 2650 
1878 1 -0.0602675 -0.0222111 -0.0322321 0.000656 -1.72239 -0.413348 3.28181 2650 
747 1 -0.00310223 -0.0100378 -0.0323703 0.000116 -0.412677 -0.920576 -4.36432 2650 
4006 1 -0.0610615 -0.00396842 -0.0318773 0.000116 -3.08106 0.80554 5.91664 2650 
2343 1 -0.0617868 -0.0142305 -0.0297487 0.000423 -1.76059 -0.240287 3.6829 2650 
3381 1 -0.0626294 -0.00928938 -0.0286804 0.000116 -1.43863 -0.197625 3.10041 2650 
3671 1 -0.00147384 -0.0049985 -0.0291742 0.000423 -0.249711 -0.180349 -4.35969 2650 
416 1 -0.0628643 -0.011411 -0.0281623 0.000116 -1.42853 -0.175862 3.1622 2650 
3073 1 -0.0631997 -0.0264058 -0.0275865 4.2e-05 -1.24906 -0.825077 2.88312 2650 
1214 1 -0.06278 -0.0228493 -0.0270155 0.000656 -1.95227 -0.144112 4.63141 2650 
2238 1 -0.0632052 -0.0320864 -0.0266098 0.000423 -1.30093 -1.10692 3.04148 2650 
661 1 -0.0631066 -0.0125303 -0.0262416 0.000656 -1.2732 -0.279933 3.00658 2650 
1716 1 -0.0459727 -0.00399401 -0.0241687 0.000116 -7.00154 -0.0928239 -3.68083 2650 
2705 1 -0.00246351 -0.00642345 -0.0236347 0.000116 -0.290229 -0.823876 -2.80453 2650 
3440 1 -0.0652722 -0.0395188 -0.0210346 0.000423 -1.51778 -0.594647 4.75388 2650 
167 1 -0.0057229 -0.00467558 -0.0173327 0.000116 -0.569892 -0.289521 -1.75032 2650 
606 1 -0.000183 0.00442201 -0.016592 0.000116 0 -0.011753 0 2650 
2713 1 -0.000763 0.011393 -0.016767 0.000116 0 -0.011753 0 2650 
93 1 -0.00478232 -0.00105733 -0.0160624 0.000116 -0.0674932 -0.0307806 0.026204 2650 
4116 1 -0.004072 -0.00123499 -0.016193 0.000116 0 -0.011753 0 2650 
1808 1 -0.00276439 -0.00124903 -0.0160032 0.000423 -0.0435639 -0.0103892 0.0208535 2650 
2875 1 -0.00014401 -0.001033 -0.0163145 0.000423 -0.0662544 -0.0557838 0.0524332 2650 
2965 1 -0.000296381 -0.00130053 -0.0158313 4.2e-05 -0.0216686 -0.0154281 -0.038719 2650 
541 1 -0.00298114 -0.000503228 -0.0158111 4.2e-05 -0.0428204 0.0143713 0.0426846 2650 
1991 1 -0.0027967 0.000763415 -0.0159838 0.000656 -0.0303568 -0.00285554 0.00655759 2650 
150 1 -0.00177632 0.000498841 -0.0162875 0.000423 -0.00905839 0.0051051 -0.00106565 2650 
736 1 -0.003429 0.00234701 -0.016474 0.000116 0 -0.011753 0 2650 
676 1 -8.73935e-05 0.00175643 -0.0163424 0.000423 -0.0443712 0.00824282 -0.0371095 2650 
1093 1 -0.004105 0.00298617 -0.0163148 4.2e-05 -0.0377884 0.0174852 0.109535 2650 
2013 1 -0.00303361 0.00367663 -0.0161696 0.000423 0.00266818 -0.00871737 -0.00337826 2650 
1698 1 -0.000127382 0.0033502 -0.0158335 0.000423 -0.0123561 0.00250859 -0.0148315 2650 
2301 1 -0.004222 0.00619501 -0.016305 4.2e-05 0 -0.011753 0 2650 
3546 1 -0.00227141 0.00606935 -0.016216 0.000423 0.0353679 0.0277321 0.00286657 2650 
3789 1 -0.00195831 0.00566183 -0.0164805 0.000116 0.030547 0.0102001 0.00865191 2650 
188 1 -0.00068 0.00596401 -0.016516 0.000116 0 -0.011753 0 2650 
3616 1 -0.000938 0.00675901 -0.016074 4.2e-05 0 -0.011753 0 2650 
508 1 -0.00159778 0.00718604 -0.0161774 0.000116 -0.0867988 0.00663082 -0.017321 2650 
3934 1 -0.001977 0.00918401 -0.016218 0.000116 0 -0.011753 0 2650 
675 1 -0.00346949 0.0126852 -0.0161875 0.000423 -0.0185613 0.11548 0.0749126 2650 
1347 1 -0.00189367 0.0307502 -0.0161051 0.000423 -0.162332 0.209952 0.0301271 2650 
2127 1 -0.0011288 -0.00215104 -0.0157041 0.000423 -0.0663235 -0.0255702 -0.0829545 2650 
330 1 -0.001698 -0.00155999 -0.015557 4.2e-05 0 -0.011753 0 2650 
856 1 -0.00101947 -0.00157058 -0.0156794 0.000116 0.0675892 -0.133711 -0.0889902 2650 
3733 1 -0.00395574 -0.000166938 -0.0157314 0.000656 -0.0212233 0.00596614 0.0148962 2650 
2313 1 -0.00483661 0.000815368 -0.0153245 0.000656 -0.0073604 0.0572321 -0.0107098 2650 
3351 1 -0.00204177 0.00123876 -0.0153373 0.000116 0.0916923 -0.0624662 0.0949948 2650 
1679 1 -0.00360923 0.00336474 -0.0155569 0.000423 -0.000267589 -0.00703629 -0.00433961 2650 
2399 1 -0.002418 0.00463601 -0.015541 0.000116 0 -0.011753 0 2650 
3121 1 -0.00625818 0.00505436 -0.0151977 0.000423 0.0277737 -0.000599869 -0.0089826 2650 
3322 1 -0.00463511 0.00474653 -0.0151919 0.000423 0.00353739 -0.017928 0.0139954 2650 
1219 1 -0.0028264 0.00538646 -0.0154623 0.000656 0.0264793 0.011011 -0.00651516 2650 
3380 1 -0.00198565 0.00495659 -0.0152928 0.000116 -0.00549837 0.0130283 0.0301104 2650 
4296 1 -0.00158451 0.00512244 -0.0156799 0.000423 0.0010665 -0.0125591 -0.00338285 2650 
978 1 -0.005372 0.00788201 -0.015286 0.000116 0 -0.011753 0 2650 
2969 1 -0.00138105 0.00720612 -0.0153533 0.000656 -1.31448e-05 -0.0117221 0.000199617 2650 
1986 1 -0.00375117 0.00819014 -0.0150626 0.000656 0.00762539 0.0149956 0.0116892 2650 
3515 1 -0.00605101 0.00896717 -0.0150528 0.000656 -0.0260876 -0.014329 -0.0052467 2650 
3177 1 -0.001068 0.01024 -0.015412 4.2e-05 0 -0.011753 0 2650 
3830 1 -0.006879 0.010736 -0.015411 4.2e-05 0 -0.011753 0 2650 
86 1 -0.002064 0.01044 -0.015055 0.000116 0 -0.011753 0 2650 
938 1 -0.000869 0.011646 -0.015416 0.000116 0 -0.011753 0 2650 
2701 1 -0.00183584 0.0198956 -0.0154058 0.000116 0.0331549 0.247236 -0.00676049 2650 
3859 1 -0.0010035 0.0219037 -0.0157333 0.000423 0.0625424 0.161989 -0.116581 2650 
1548 1 -0.00142329 0.0292654 -0.0156072 0.000656 0.0286247 0.197287 -0.293767 2650 
2967 1 -0.066639 -0.00483668 -0.0144906 0.000656 -1.72295 0.39741 3.11356 2650 
428 1 -0.010642 -0.00426445 -0.0149914 0.000116 -0.726147 -0.277441 -0.961008 2650 
3502 1 -0.001236 -0.00245499 -0.014816 4.2e-05 0 -0.011753 0 2650 
2690 1 -0.00148185 -0.00185027 -0.0143843 0.000423 -0.0886895 -0.0588011 -0.0102399 2650 
3200 1 -0.00783788 -0.00124916 -0.0143017 0.000423 0.0205513 0.040167 0.0362369 2650 
3196 1 -0.00595821 -0.000804087 -0.0148626 0.000423 -0.0194273 -0.0238555 -0.0431032 2650 
3441 1 -0.00354855 -0.000907612 -0.014412 0.000423 0.0511961 0.0224295 0.00157087 2650 
3904 1 -0.00233314 -0.00144368 -0.0146944 0.000116 -0.0744835 -0.0382529 -0.0809148 2650 
1640 1 -0.001358 -0.00112199 -0.014495 4.2e-05 0 -0.011753 0 2650 
2413 1 -0.003433 -0.000439994 -0.014868 4.2e-05 0 -0.011753 0 2650 
2645 1 -0.000819968 0.000130816 -0.0146608 0.000656 -0.0760751 -0.0478553 -0.0891054 2650 
1053 1 -0.007469 0.000794006 -0.014946 0.000116 0 -0.011753 0 2650 
2332 1 -0.003268 0.00108501 -0.014853 0.000423 0 -0.011753 0 2650 
3239 1 -0.002155 0.00100401 -0.014442 0.000116 0 -0.011753 0 2650 
1618 1 -0.00750056 0.00221299 -0.0146835 0.000116 0.0666428 -0.0229251 -0.215351 2650 
248 1 -0.00170772 0.00186465 -0.0148486 0.000423 -0.109327 -0.00677792 0.0888521 2650 
220 1 -0.003649 0.00369901 -0.014897 4.2e-05 0 -0.011753 0 2650 
3645 1 -0.00231539 0.00370923 -0.0143901 0.000423 -0.0160854 0.00255483 0.0270818 2650 
104 1 -0.00226635 0.00429088 -0.0144049 4.2e-05 -0.00674979 0.0150481 0.0116551 2650 
4165 1 -0.00544526 0.00561603 -0.0144754 0.000656 0.00388545 0.0106393 0.0146387 2650 
234 1 -0.0042796 0.00568887 -0.0144507 0.000423 0.00472056 -0.0217141 -0.0831894 2650 
3147 1 -0.00215021 0.00564335 -0.0143343 0.000116 -0.00706837 0.0221131 0.0132401 2650 
2438 1 -0.005612 0.00699701 -0.014612 0.000423 0 -0.011753 0 2650 
3365 1 -0.002315 0.00706201 -0.014552 0.000116 0 -0.011753 0 2650 
3564 1 -0.000147 0.00642501 -0.014738 0.000423 0 -0.011753 0 2650 
4190 1 -0.00732163 0.00875024 -0.0145838 0.000423 -0.000739016 -0.00663112 -0.00697295 2650 
958 1 -0.00512595 0.00880891 -0.0149297 0.000116 0.0401715 0.0303898 0.081686 2650 
2596 1 -0.00394207 0.00956483 -0.0147852 0.000116 -0.0696583 -0.0414928 -0.0233005 2650 
1228 1 -0.001302 0.010517 -0.014946 0.000423 0 -0.011753 0 2650 
371 1 -0.000535637 0.0106314 -0.0146036 0.000423 -0.000508818 -0.00613125 -0.00679769 2650 
3669 1 -0.000497838 0.0114653 -0.0142405 0.000423 0.00220454 -0.00743356 -0.00383523 2650 
1979 1 -0.00136836 0.012172 -0.0145633 4.2e-05 -0.0899116 0.138255 -0.11345 2650 
3632 1 -0.00722134 0.0128 -0.0148475 0.000423 -0.0240755 -0.00064867 0.0133566 2650 
1357 1 -0.00747183 0.0217377 -0.01432 0.000423 -0.0662446 0.165624 0.033916 2650 
1900 1 -0.00770313 0.023498 -0.0143393 0.000423 0.00650864 0.175596 0.0646267 2650 
1636 1 -0.0062459 0.0473134 -0.0148955 0.000116 0.319403 -0.362976 -0.00255225 2650 
1544 1 -0.0669083 -0.02718 -0.0138013 0.000656 -0.950697 -0.306574 4.311 2650 
2545 1 -0.0670871 -0.0152039 -0.0141454 0.000423 -1.00424 -0.770501 4.12091 2650 
327 1 -0.00363597 -0.0032269 -0.0134319 4.2e-05 0.0194283 -0.0131126 0.0403205 2650 
3295 1 -0.00508086 -0.00296872 -0.0134792 0.000656 -0.0807434 0.00895943 0.0888727 2650 
4056 1 -0.00222938 -0.00267666 -0.0140556 0.000656 0.0545981 -0.0365229 -0.0165599 2650 
1393 1 -0.009523 -0.00210499 -0.013534 0.000116 0 -0.011753 0 2650 
3303 1 -0.00871393 -0.0021124 -0.0136556 0.000656 -0.0527279 0.0509338 0.0372506 2650 
3999 1 -0.0026796 -0.0013567 -0.0139968 0.000423 0.0971825 -0.00741603 -0.0258727 2650 
2783 1 -0.00267195 -0.000334757 -0.0139669 0.000423 0.0359054 0.0369528 -0.00810704 2650 
4126 1 -0.00196201 -0.000769618 -0.0136956 0.000116 -0.0261531 0.0084042 0.00402279 2650 
3778 1 -0.003893 0.000447006 -0.013816 0.000423 0 -0.011753 0 2650 
2219 1 -0.00873487 0.00201568 -0.013527 0.000423 -0.00388839 0.0436348 -0.0982852 2650 
1125 1 -0.00150456 0.00176861 -0.013756 0.000423 -0.0611502 0.0189251 -0.0258072 2650 
1620 1 -0.008456 0.00246601 -0.013856 0.000116 0 -0.011753 0 2650 
3587 1 -0.00619048 0.00399285 -0.0137474 0.000116 0.00461134 0.0023037 -0.00278329 2650 
2322 1 -0.00733416 0.00813068 -0.0136941 0.000656 -0.00712523 -0.00504228 -0.00401487 2650 
1288 1 -0.002467 0.00836501 -0.014044 0.000116 0 -0.011753 0 2650 
2222 1 -0.000169 0.00899401 -0.014111 0.000423 0 -0.011753 0 2650 
581 1 -0.005568 0.00988601 -0.014167 0.000423 0 -0.011753 0 2650 
2483 1 -0.00877196 0.0117821 -0.0134522 0.000116 -0.0165283 -0.027419 -0.0195094 2650 
1476 1 -0.006941 0.011165 -0.013435 0.000423 0 -0.011753 0 2650 
1409 1 -0.00044 0.012145 -0.013868 0.000116 0 -0.011753 0 2650 
884 1 -0.00595195 0.0134422 -0.0136897 0.000656 -0.0213431 0.0225291 0.0346991 2650 
728 1 -0.00350889 0.016152 -0.0135441 0.000116 0.0277452 0.106546 0.043675 2650 
4267 1 -0.00469517 0.0205819 -0.0137522 4.2e-05 -0.061885 0.176997 -0.181487 2650 
3453 1 -0.00848363 0.0308011 -0.0139897 0.000423 0.0494691 0.284608 0.0822627 2650 
3633 1 -0.00941 -0.00283899 -0.013111 0.000423 0 -0.011753 0 2650 
2559 1 -0.00191958 -0.00288288 -0.0127979 0.000423 -0.0863785 -0.0258812 -0.0383403 2650 
2939 1 -0.00886913 -0.00184574 -0.0127393 0.000116 -0.0411394 0.0381719 0.0659172 2650 
388 1 -0.00825815 -0.000236695 -0.0127446 0.000116 -0.0420133 -0.0198333 -0.0745178 2650 
955 1 -0.00413524 -0.000330895 -0.0131738 0.000116 -0.12233 -0.0547202 -0.0330024 2650 
450 1 -0.00732257 0.000688017 -0.0126792 0.000656 -0.028043 0.0444023 -0.0860848 2650 
3551 1 -0.005293 0.000506006 -0.013215 0.000423 0 -0.011753 0 2650 
2827 1 -0.00335432 0.00043161 -0.0133065 0.000116 -0.060084 0.0149229 -0.0942624 2650 
3637 1 -0.00245334 0.000804268 -0.0129477 0.000423 -0.0253615 0.00907389 -0.0496618 2650 
4371 1 -0.000719 0.00190401 -0.012831 0.000116 0 -0.011753 0 2650 
2283 1 -0.000701 0.00221901 -0.012847 0.000116 0 -0.011753 0 2650 
2957 1 -0.0045285 0.00274978 -0.0127611 4.2e-05 0.0931185 -0.0545985 0.0471048 2650 
2525 1 -0.004063 0.00259201 -0.013231 4.2e-05 0 -0.011753 0 2650 
1595 1 -0.007474 0.00325001 -0.012756 0.000423 0 -0.011753 0 2650 
2619 1 -0.005851 0.00340801 -0.012854 0.000116 0 -0.011753 0 2650 
3880 1 -0.010277 0.00432401 -0.012913 0.000423 0 -0.011753 0 2650 
2609 1 -0.00886 0.00413201 -0.013248 0.000116 0 -0.011753 0 2650 
1569 1 -0.00295561 0.00411615 -0.0127602 0.000423 -0.0214881 0.00570095 0.0411068 2650 
2194 1 -0.002781 0.00454601 -0.012701 4.2e-05 0 -0.011753 0 2650 
222 1 -0.0015194 0.00473443 -0.0129941 0.000656 -0.00693584 -0.0507115 -0.0323512 2650 
2918 1 -0.00757 0.00548301 -0.012948 0.000116 0 -0.011753 0 2650 
3917 1 -0.003984 0.00489301 -0.012703 0.000116 0 -0.011753 0 2650 
2059 1 -0.003583 0.00510201 -0.012756 0.000116 0 -0.011753 0 2650 
2547 1 -0.00951395 0.00583766 -0.0131134 0.000423 -0.0347886 0.0314203 0.0010098 2650 
1584 1 -0.00319873 0.00613063 -0.0128845 0.000423 0.0377863 -0.0108548 -0.0614448 2650 
4078 1 -0.00703819 0.00725598 -0.0128459 0.000423 -0.0196946 -0.00953845 0.00130892 2650 
1427 1 -0.002948 0.00743301 -0.013376 4.2e-05 0 -0.011753 0 2650 
4318 1 -0.0080352 0.00842073 -0.0126344 0.000423 -0.00589465 -0.00768269 0.00318441 2650 
3259 1 -0.008055 0.00849801 -0.013388 0.000116 0 -0.011753 0 2650 
713 1 -0.00559606 0.00842857 -0.0132121 0.000423 -0.0229952 -0.0104665 0.0222494 2650 
1795 1 -0.008775 0.00943201 -0.012959 0.000423 0 -0.011753 0 2650 
1769 1 -0.00493136 0.00935279 -0.0132026 0.000656 -0.011011 -0.0133928 0.00327466 2650 
205 1 -0.000744 0.010149 -0.01334 0.000116 0 -0.011753 0 2650 
1775 1 -0.00822063 0.0128445 -0.0130085 0.000423 -7.29146e-05 -0.011186 -0.000346901 2650 
3644 1 -0.000733 0.01282 -0.013392 0.000423 0 -0.011753 0 2650 
2250 1 -0.00785585 0.0140808 -0.0127037 0.000423 -0.0795114 0.075595 0.0420437 2650 
2109 1 -0.00329571 0.014209 -0.0132079 0.000423 -0.0263796 0.073224 -0.0180073 2650 
819 1 -0.00825017 0.0254459 -0.0131271 0.000423 -0.0315835 0.180598 -0.150119 2650 
3642 1 -0.0675199 -0.0240984 -0.0119516 0.000423 -0.624105 -0.332916 3.62478 2650 
2576 1 -0.0674457 -0.0218665 -0.0124015 0.000423 -0.705749 -0.272455 3.75813 2650 
2544 1 -0.00435129 -0.0032019 -0.0119004 0.000423 -0.120839 -0.0237096 -0.0167299 2650 
868 1 -0.000201 -0.00320899 -0.012301 0.000116 0 -0.011753 0 2650 
1487 1 -0.00472189 -0.00287091 -0.0125956 0.000116 -0.0134684 0.00499043 0.110171 2650 
4150 1 -0.00245586 -0.00311335 -0.0120854 0.000116 -0.0881619 -0.0334166 0.00950769 2650 
2819 1 -0.007468 -0.000848994 -0.012046 0.000116 0 -0.011753 0 2650 
2468 1 -0.003167 -0.00100999 -0.012131 0.000423 0 -0.011753 0 2650 
545 1 -0.002328 -0.00138299 -0.012432 4.2e-05 0 -0.011753 0 2650 
950 1 -0.010031 -0.000116994 -0.011866 0.000116 0 -0.011753 0 2650 
1763 1 -0.001143 -0.000721994 -0.012442 0.000656 0 -0.011753 0 2650 
1422 1 -0.003881 0.00112401 -0.012349 4.2e-05 0 -0.011753 0 2650 
1774 1 -0.00105245 0.00140349 -0.0123103 0.000423 0.0349043 0.0565747 -0.0552412 2650 
623 1 -0.005429 0.00163101 -0.012246 0.000116 0 -0.011753 0 2650 
1799 1 -0.003237 0.00193901 -0.012061 0.000423 0 -0.011753 0 2650 
3956 1 -0.00896595 0.00271574 -0.012276 0.000656 -0.000838464 -0.0112695 -0.000254236 2650 
3389 1 -0.010415 0.00339001 -0.012026 0.000116 0 -0.011753 0 2650 
411 1 -0.00966444 0.00520731 -0.012082 0.000116 -0.00787832 -0.00657823 -8.20909e-05 2650 
3826 1 -0.009208 0.00528501 -0.012552 0.000116 0 -0.011753 0 2650 
3316 1 -0.008979 0.00603801 -0.012376 0.000423 0 -0.011753 0 2650 
1261 1 -0.007462 0.00594201 -0.012403 0.000423 0 -0.011753 0 2650 
3362 1 -0.002672 0.00605101 -0.012199 0.000116 0 -0.011753 0 2650 
3446 1 -0.002592 0.00704501 -0.012627 0.000423 0 -0.011753 0 2650 
3030 1 -0.001189 0.00754801 -0.012596 0.000116 0 -0.011753 0 2650 
2789 1 -0.000101796 0.00711437 -0.0119221 0.000423 0.0540452 -0.0229939 -0.0675585 2650 
2913 1 -0.00469604 0.00805393 -0.0118701 0.000116 -0.028239 -0.0119827 -0.0130286 2650 
171 1 -0.00159926 0.00804093 -0.0120036 0.000116 0.0221612 -0.025445 0.125633 2650 
191 1 -0.011348 0.00886901 -0.012254 0.000116 0 -0.011753 0 2650 
3847 1 -0.00973668 0.00947274 -0.0124053 0.000656 6.67707e-05 -0.0116743 2.1441e-05 2650 
1495 1 -0.004483 0.00901601 -0.012591 0.000116 0 -0.011753 0 2650 
1250 1 -0.007399 0.010195 -0.012448 0.000423 0 -0.011753 0 2650 
3173 1 -0.004958 0.00967701 -0.012321 4.2e-05 0 -0.011753 0 2650 
3106 1 -0.0038069 0.0100197 -0.0122065 0.000423 -2.72641e-05 0.0166574 0.111537 2650 
2630 1 -0.001036 0.00988501 -0.012074 4.2e-05 0 -0.011753 0 2650 
4002 1 -0.000443 0.00970901 -0.01223 0.000116 0 -0.011753 0 2650 
70 1 -0.0106189 0.0104094 -0.0123876 0.000116 0.00881709 0.0274246 0.0240282 2650 
65 1 -0.009488 0.01109 -0.011959 0.000116 0 -0.011753 0 2650 
4314 1 -0.00778692 0.0112791 -0.0121172 0.000423 -0.081014 -0.0186136 0.0169729 2650 
1423 1 -0.00145 0.011365 -0.012526 4.2e-05 0 -0.011753 0 2650 
1578 1 -0.0107761 0.0126084 -0.0124376 0.000423 0.00693886 -0.000720995 0.0338186 2650 
4160 1 -0.00862496 0.0133991 -0.0119607 4.2e-05 -0.100429 0.0333659 0.0668689 2650 
1974 1 -0.00538574 0.0128988 -0.0126148 4.2e-05 -0.0917311 0.0247116 0.0427267 2650 
2205 1 -0.00490974 0.0131155 -0.0121183 0.000656 -0.00241752 0.00375043 0.00610124 2650 
1143 1 -0.00151278 0.013392 -0.0119337 0.000423 0.00744219 0.00969658 -0.00437689 2650 
1381 1 -0.00769742 0.0149055 -0.0120692 0.000116 -0.000908202 0.0816555 0.108061 2650 
3784 1 -0.0107385 0.0164467 -0.0118592 0.000116 0.0423878 0.0666065 0.0301123 2650 
2467 1 -0.00408696 0.0188872 -0.0121322 0.000423 0.022189 0.122131 -0.0980488 2650 
3607 1 -0.0679254 -0.0308096 -0.0113083 0.000116 -0.756857 -0.828759 4.86954 2650 
1510 1 -0.0679948 -0.00354084 -0.0110219 0.000116 -0.631958 0.239795 3.34551 2650 
3679 1 -0.012092 -0.00267199 -0.011604 0.000116 0 -0.011753 0 2650 
2072 1 -0.009308 -0.00280999 -0.011721 0.000116 0 -0.011753 0 2650 
3505 1 -0.006952 -0.00171399 -0.011235 4.2e-05 0 -0.011753 0 2650 
1022 1 -0.002093 -0.00184399 -0.011454 0.000423 0 -0.011753 0 2650 
2166 1 -0.00915943 -0.0014935 -0.0116643 0.000116 -0.0143174 -0.0293231 -0.0106889 2650 
3960 1 -0.00867724 -0.00114993 -0.0115616 0.000423 -0.0011096 -0.0310235 -0.0206256 2650 
3191 1 -0.00597625 -0.000819445 -0.0116915 0.000656 -0.00833246 0.0061838 -0.01197 2650 
440 1 -0.00061 -0.000411994 -0.011485 4.2e-05 0 -0.011753 0 2650 
3643 1 -0.00547772 0.00109699 -0.0116321 0.000423 -0.00957218 0.0175786 -0.0039661 2650 
1452 1 -0.00108846 0.00147691 -0.0110696 0.000423 0.00554637 -0.012591 0.0031522 2650 
4215 1 -0.011184 0.00169701 -0.011524 0.000423 0 -0.011753 0 2650 
2279 1 -0.011345 0.00226001 -0.01145 0.000116 0 -0.011753 0 2650 
2579 1 -0.00872195 0.00179819 -0.0112224 0.000423 -0.000311164 -0.0069809 0.00202215 2650 
3201 1 -0.00447595 0.00199634 -0.0117352 0.000423 -0.0605399 -0.0413426 -0.023818 2650 
3535 1 -9.9e-05 0.00200001 -0.011488 0.000423 0 -0.011753 0 2650 
3894 1 -0.005583 0.00275901 -0.011098 0.000116 0 -0.011753 0 2650 
1063 1 -0.009531 0.00331401 -0.011683 0.000116 0 -0.011753 0 2650 
1059 1 -0.00701747 0.00356315 -0.0112219 0.000116 -0.00683586 -0.0187509 0.0600761 2650 
3383 1 -0.011681 0.00430901 -0.011229 0.000116 0 -0.011753 0 2650 
1657 1 -0.00914992 0.00460754 -0.0117744 0.000656 -0.0116375 -0.0115716 0.0121112 2650 
3542 1 -0.00373037 0.00460064 -0.0112765 0.000423 0.00241856 -0.00915467 -0.000529042 2650 
2485 1 -0.000820043 0.00416441 -0.0111502 0.000116 0.105115 -0.0174821 0.0881387 2650 
2294 1 -0.004894 0.00499501 -0.011565 0.000116 0 -0.011753 0 2650 
878 1 -0.003908 0.00547801 -0.011202 4.2e-05 0 -0.011753 0 2650 
708 1 -0.00252 0.00519101 -0.011391 0.000423 0 -0.011753 0 2650 
1822 1 -0.008034 0.00604801 -0.011166 0.000116 0 -0.011753 0 2650 
1758 1 -0.00201 0.00630901 -0.01144 4.2e-05 0 -0.011753 0 2650 
1215 1 -0.0102818 0.00647155 -0.0113096 0.000656 -0.0151247 -0.0120252 0.00241313 2650 
4027 1 -0.003218 0.00744001 -0.011075 0.000116 0 -0.011753 0 2650 
2409 1 -0.002586 0.00737901 -0.011527 4.2e-05 0 -0.011753 0 2650 
2798 1 -0.008755 0.00847901 -0.01131 0.000423 0 -0.011753 0 2650 
1617 1 -0.00424 0.00936801 -0.011492 0.000116 0 -0.011753 0 2650 
233 1 -0.00490283 0.0110123 -0.0114979 0.000423 0.00253467 -0.0140185 -0.0192435 2650 
3684 1 -0.00471717 0.0103425 -0.0115301 0.000116 0.00413104 -0.0230128 -0.00941473 2650 
1663 1 -0.00986262 0.0115512 -0.0113446 0.000423 -0.00585048 -0.0195656 0.00569326 2650 
3145 1 -0.006381 0.011831 -0.011273 0.000116 0 -0.011753 0 2650 
4257 1 -0.0115602 0.0121878 -0.0113196 0.000116 0.0066689 0.0215647 -0.146792 2650 
976 1 -0.005828 0.013208 -0.011785 0.000116 0 -0.011753 0 2650 
911 1 -0.0093966 0.0145111 -0.0113707 0.000423 -0.0526708 0.0464536 0.0089698 2650 
3455 1 -0.00171572 0.0143283 -0.0114566 0.000423 -0.039909 0.0392628 -0.197047 2650 
1254 1 -0.00503173 0.0193127 -0.0112465 0.000423 -0.0693317 0.161023 -0.144827 2650 
1924 1 -0.0103993 -0.00334236 -0.0108469 0.000423 -0.197535 -0.0570522 -0.167979 2650 
4373 1 -0.004239 -0.00244799 -0.010869 4.2e-05 0 -0.011753 0 2650 
3426 1 -0.00103178 -0.00272468 -0.0105445 0.000423 -0.00109119 -0.0119118 0.00171421 2650 
15 1 -0.001892 -0.00205699 -0.010407 0.000423 0 -0.011753 0 2650 
2130 1 -0.000316 -0.000992994 -0.010491 0.000423 0 -0.011753 0 2650 
3093 1 -0.00290408 -0.000782 -0.0108254 0.000423 -0.000676928 -0.0109568 -0.00158381 2650 
1193 1 -4.3e-05 -0.000426994 -0.010628 0.000116 0 -0.011753 0 2650 
2022 1 -0.00559554 0.000235549 -0.0110043 0.000423 0.00555421 0.00115867 0.00414171 2650 
3673 1 -0.00271834 4.58754e-05 -0.0108339 0.000423 0.000169124 -0.0108514 -9.18803e-05 2650 
2817 1 -0.00159295 0.00041511 -0.0103915 0.000116 -0.0539328 -0.00567838 -0.0938536 2650 
3284 1 -0.001323 6.20061e-05 -0.010635 4.2e-05 0 -0.011753 0 2650 
3530 1 -0.000573 0.000532006 -0.010526 0.000423 0 -0.011753 0 2650 
1233 1 -0.012882 0.00169101 -0.010287 0.000423 0 -0.011753 0 2650 
3411 1 -0.00959545 0.00313524 -0.0105672 0.000656 0.0131942 0.0130309 0.0293002 2650 
497 1 -0.00574 0.00268501 -0.010398 0.000116 0 -0.011753 0 2650 
124 1 -0.005032 0.00259001 -0.01051 0.000423 0 -0.011753 0 2650 
1192 1 -0.004051 0.00290901 -0.010435 0.000116 0 -0.011753 0 2650 
2922 1 -0.00208712 0.00322133 -0.0105773 0.000116 -0.0492521 -0.0166623 -0.0574868 2650 
2474 1 -0.00217621 0.00466533 -0.0103802 0.000423 -0.00698311 -0.00271323 -0.0184622 2650 
2912 1 -0.006578 0.00485201 -0.010859 0.000116 0 -0.011753 0 2650 
3787 1 -0.006362 0.00528801 -0.010668 0.000116 0 -0.011753 0 2650 
760 1 -0.006943 0.00562501 -0.010573 4.2e-05 0 -0.011753 0 2650 
861 1 -0.006339 0.00579901 -0.010358 0.000116 0 -0.011753 0 2650 
2948 1 -0.002008 0.00699101 -0.010384 0.000116 0 -0.011753 0 2650 
2500 1 -0.010648 0.00717401 -0.010771 0.000116 0 -0.011753 0 2650 
4166 1 -0.00423459 0.00725471 -0.0105691 0.000656 -0.000473131 -0.0124074 -0.000835587 2650 
3727 1 -0.00442265 0.00792449 -0.0103935 4.2e-05 -0.00143931 -0.00938471 -0.0055359 2650 
949 1 -0.00471276 0.00850156 -0.0108487 0.000116 -0.0176455 0.0180502 -0.0430698 2650 
3456 1 -0.00350782 0.00806483 -0.0108984 0.000423 -0.000997028 -0.0111859 -0.00366568 2650 
3132 1 -0.007716 0.00925001 -0.01033 0.000116 0 -0.011753 0 2650 
1935 1 -0.00597246 0.00912962 -0.0106701 0.000116 -0.0109651 0.0201009 -0.000367915 2650 
131 1 -0.00278378 0.00945028 -0.0102677 0.000423 -0.118196 0.0928437 -0.0308169 2650 
2097 1 -0.00889 0.00974301 -0.010395 0.000656 0 -0.011753 0 2650 
89 1 -0.003936 0.00979501 -0.010466 0.000116 0 -0.011753 0 2650 