ITEM: TIMESTEP
7839348
ITEM: NUMBER OF ATOMS
4355
ITEM: BOX BOUNDS ff ff ff
-0.15 0.15
-0.15 0.06
-0.15 0.15
ITEM: ATOMS id type x y z radius vx vy vz density 
1537 1 -0.130863 -0.0206499 0.0105731 4.2e-05 -9.18979 -0.029662 6.67732 2650 
3366 1 -0.039137 -0.047003 -0.0566857 0.000116 -4.38324 0.789355 3.02953 2650 
1520 1 -0.0577169 -0.0466495 -0.0375998 0.000116 -3.94157 0.0390655 6.07197 2650 
983 1 -0.0676762 -0.062266 -0.0132359 4.2e-05 -2.09974 -0.000315259 10.737 2650 
1135 1 -0.0685757 -0.0501062 0.000543162 0.000423 0.0519201 0.0655892 6.42806 2650 
3601 1 -0.0688518 -0.0512521 0.0021241 0.000116 0.208875 -0.0412123 6.85956 2650 
1175 1 -0.0669434 -0.0493343 0.0160723 0.000116 1.27858 -0.170453 5.09012 2650 
3753 1 -0.0643629 -0.0543727 0.0236705 0.000423 1.71485 -0.178798 4.69747 2650 
2066 1 -0.0606799 -0.0586979 0.0326028 0.000116 2.37562 0.400303 4.44885 2650 
947 1 -0.0582521 -0.0623421 0.0340029 0.000116 2.5081 0.236716 7.07814 2650 
3038 1 -0.0497101 -0.0503206 0.0476847 0.000116 3.78453 0.00199743 3.97322 2650 
3946 1 -0.0315312 -0.0494679 0.0613266 4.2e-05 6.06256 0.389791 3.15718 2650 
4009 1 -0.0122694 -0.0526007 0.0677756 0.000116 5.6882 0.427177 1.08857 2650 
2087 1 -0.00182375 -0.0386604 -0.0689338 4.2e-05 -5.10655 1.244 0.126539 2650 
3276 1 -0.000123799 -0.0201966 -0.068884 0.000116 -3.99861 -0.288178 0.015722 2650 
2039 1 -0.00315598 -0.0144252 -0.068798 0.000116 -4.63054 -0.401368 0.117861 2650 
3470 1 -0.00219973 -0.0118989 -0.0688492 0.000116 -5.06447 0.212912 0.282943 2650 
827 1 -0.00231938 -0.00332549 -0.0688422 0.000116 -5.0111 0.406393 0.107755 2650 
759 1 -0.00180097 -0.00328164 -0.0688573 0.000116 -4.61507 0.221636 0.174372 2650 
4037 1 -0.00767809 -0.0404138 -0.0684497 0.000116 -5.82067 0.863035 0.659963 2650 
831 1 -0.0103038 -0.0370804 -0.0681036 0.000116 -7.06785 1.79168 1.07082 2650 
3073 1 -0.0102825 -0.0360309 -0.0681815 4.2e-05 -7.62793 0.508031 1.20873 2650 
114 1 -0.0075034 -0.0339698 -0.0679203 0.000656 -5.9983 -0.0543709 0.564505 2650 
1218 1 -0.0049827 -0.0318043 -0.0681645 0.000656 -4.56251 -0.138564 0.322462 2650 
1945 1 -0.0113774 -0.0251408 -0.0679351 0.000116 -5.8998 -0.00354173 0.973814 2650 
4094 1 -0.00851931 -0.0240726 -0.0680398 0.000423 -5.55828 0.0528088 0.722507 2650 
1343 1 -0.00894927 -0.0228668 -0.0679903 0.000423 -5.67157 0.0927249 0.716946 2650 
2117 1 -0.000268804 -0.0206378 -0.068578 0.000423 -4.22006 -0.280637 0.0153359 2650 
2103 1 -0.00904854 -0.0201101 -0.0679784 0.000423 -5.62168 -0.00218855 0.735946 2650 
1312 1 -0.0118954 -0.0193146 -0.0679239 4.2e-05 -4.34111 -0.0323379 0.754242 2650 
1733 1 -0.0115547 -0.0166103 -0.0679081 0.000116 -4.02653 -0.564551 0.67108 2650 
518 1 -0.00746879 -0.0162052 -0.0684773 0.000116 -4.91223 0.138147 0.536097 2650 
3304 1 -0.00379023 -0.0135526 -0.0684488 0.000423 -4.09316 -0.443961 0.179198 2650 
229 1 -0.00320283 -0.00947862 -0.068246 0.000656 -5.00931 -0.162878 0.173757 2650 
2151 1 -0.0114823 -0.00709157 -0.0679204 0.000116 -6.47265 -0.520596 1.09741 2650 
1723 1 -0.0104316 -0.00616829 -0.068089 0.000116 -3.1921 -0.179624 0.467582 2650 
416 1 -0.00723536 -0.00552989 -0.0685027 0.000116 -4.18826 -0.435014 0.428476 2650 
1640 1 -0.00402452 -0.00437153 -0.0685498 4.2e-05 -3.26396 -0.0545959 -0.148168 2650 
3088 1 -0.0123644 -0.0270545 -0.0674485 0.000423 -5.97945 -0.207285 1.12598 2650 
1213 1 -0.0108963 -0.0264286 -0.0674691 0.000656 -5.94248 -0.138463 0.889872 2650 
1356 1 -0.0123584 -0.025531 -0.0674546 0.000423 -5.96485 -0.0408653 1.04943 2650 
1493 1 -0.00299751 -0.0207171 -0.0673657 0.000116 -6.38861 0.171479 1.46076 2650 
3353 1 -0.0140549 -0.0131345 -0.067435 0.000116 -5.71562 1.42493 1.17371 2650 
2788 1 -0.0137425 -0.00179268 -0.067187 0.000423 -7.06669 -0.0326578 1.42698 2650 
1832 1 -0.0143253 -0.000127798 -0.0673779 0.000116 -6.79023 -0.00612472 1.44216 2650 
2954 1 -0.0140982 -0.000116198 -0.0674256 0.000116 -6.79463 0.000858231 1.4187 2650 
379 1 -0.015717 -0.0373557 -0.0667515 0.000423 -5.79741 -0.736053 1.36387 2650 
2679 1 -0.0166989 -0.0276989 -0.0665141 0.000423 -6.17416 -0.121982 1.54491 2650 
2966 1 -0.0156789 -0.0271854 -0.0665222 0.000656 -6.20494 -0.0290606 1.47979 2650 
2350 1 -0.0156885 -0.0259298 -0.0667581 0.000423 -6.10057 -0.00561261 1.42206 2650 
4377 1 -0.00596612 -0.0217239 -0.066654 4.2e-05 -10.6333 -0.997143 0.359115 2650 
2436 1 -0.0193963 -0.0385472 -0.0657781 0.000423 -6.08406 0.108718 1.77774 2650 
3198 1 -0.0175484 -0.0275238 -0.0662951 0.000423 -6.16243 0.0357016 1.62357 2650 
2820 1 -0.0190514 -0.0026402 -0.066197 0.000116 -4.90964 0.129127 1.40823 2650 
1535 1 -0.0196485 -4.20145e-05 -0.0660995 4.2e-05 -7.01034 -0.00498003 2.09009 2650 
615 1 -0.0194948 -0.000116044 -0.0660677 0.000116 -7.02127 0.00168018 2.07551 2650 
4360 1 -0.0192713 -0.000115992 -0.0661333 0.000116 -7.02703 0.000551875 2.0415 2650 
2823 1 -0.019203 -0.00033686 -0.0661531 0.000116 -7.03181 0.00135047 2.04911 2650 
2563 1 -0.0186846 -0.000423162 -0.0659837 0.000423 -6.99206 0.00228732 1.99668 2650 
2238 1 -0.0224576 -0.0411839 -0.0647967 0.000423 -5.72689 -0.252938 1.98749 2650 
902 1 -0.0204404 -0.0293259 -0.0654616 0.000423 -6.13432 0.225983 1.95047 2650 
163 1 -0.021719 -0.0265367 -0.0650481 0.000423 -5.73473 -0.139289 1.88611 2650 
3229 1 -0.0226348 -0.0184258 -0.0647346 0.000423 -6.10951 0.0231894 2.12133 2650 
1081 1 -0.0253113 -0.0179756 -0.0640652 0.000116 -4.88017 -0.209123 1.91097 2650 
2353 1 -0.0243776 -0.0110372 -0.064099 0.000423 -5.52065 0.073973 2.09011 2650 
2964 1 -0.0248076 -0.000735868 -0.0643409 4.2e-05 -7.57894 -0.176131 2.92125 2650 
4372 1 -0.0276946 -0.0218325 -0.0631522 4.2e-05 -4.33337 0.23128 1.88065 2650 
2703 1 -0.0270127 -0.0217585 -0.0633664 0.000116 -4.86183 0.893973 2.07039 2650 
2023 1 -0.0284815 -0.0407378 -0.0623839 0.000423 -5.9375 -0.0305513 2.68386 2650 
1510 1 -0.0295133 -0.0100592 -0.06224 0.000116 -4.87282 0.0258866 2.28766 2650 
2007 1 -0.0294081 -0.00955114 -0.0619492 0.000423 -3.07657 -0.298705 1.48906 2650 
1481 1 -0.0347999 -0.0364918 -0.0590922 0.000423 -5.14834 -0.21723 2.9784 2650 
200 1 -0.0369746 -0.0193416 -0.0581188 0.000116 -6.08588 0.349287 3.86534 2650 
3619 1 -0.0373478 -0.0159976 -0.0579675 4.2e-05 -4.30177 0.195659 2.79817 2650 
2959 1 -0.0374132 -0.00301063 -0.0579248 4.2e-05 -3.49538 -0.0650319 2.32617 2650 
897 1 -0.0374939 -0.0333656 -0.0574188 0.000423 -5.07789 -0.0599542 3.329 2650 
1453 1 -0.0381144 -0.0175627 -0.0570108 0.000423 -5.15862 0.189932 3.42628 2650 
197 1 -0.037812 -0.00170736 -0.057578 0.000116 -3.38889 -0.113473 2.27471 2650 
2019 1 -0.0389996 -0.0057746 -0.0564092 0.000423 -3.93537 0.00715704 2.73989 2650 
2806 1 -0.0403449 -0.00799531 -0.0558331 0.000116 -3.48305 -0.591427 2.53708 2650 
2418 1 -0.0429261 -0.00572562 -0.0539685 4.2e-05 -4.39693 -0.513468 3.47593 2650 
2132 1 -0.0433739 -0.0369591 -0.053119 0.000423 -4.87673 -0.506524 3.97005 2650 
3047 1 -0.0433589 -0.00214917 -0.0535253 0.000116 -2.81191 -0.188367 2.30227 2650 
3692 1 -0.0449312 -0.0188151 -0.0522127 0.000116 -4.14277 -0.301859 3.56279 2650 
1170 1 -0.044595 -0.00254962 -0.0525003 0.000116 -2.79603 0.0931926 2.35065 2650 
1957 1 -0.0467628 -0.0127873 -0.0505788 0.000116 -3.72417 -0.173342 3.41808 2650 
872 1 -0.0462199 -0.00657869 -0.051175 4.2e-05 -2.57358 -0.0948043 2.30034 2650 
2911 1 -0.0471697 -0.0448241 -0.0497789 0.000423 -4.95609 0.421386 4.70056 2650 
397 1 -0.0472305 -0.039106 -0.0501422 0.000116 -4.60945 0.103473 4.33507 2650 
3134 1 -0.0472582 -0.007516 -0.0501162 0.000116 -3.55086 -0.0786359 3.33365 2650 
2314 1 -0.0468087 -0.0414649 -0.0496123 0.000656 -5.6585 -0.309359 4.56434 2650 
893 1 -0.0472754 -0.0340382 -0.049679 0.000423 -4.75722 -0.239492 4.54041 2650 
538 1 -0.0484754 -0.00473782 -0.0489402 0.000116 -4.07414 -0.159518 4.01252 2650 
3387 1 -0.0490848 -0.0198882 -0.0483289 0.000116 -3.58888 -0.373425 3.64312 2650 
1443 1 -0.0485536 -0.0167917 -0.0484305 0.000423 -3.54962 -0.116788 3.55853 2650 
4138 1 -0.0488864 -0.0145547 -0.0485292 0.000116 -3.64443 0.176905 3.62582 2650 
35 1 -0.0494849 -0.038045 -0.0474717 0.000423 -4.46788 0.00599926 4.58706 2650 
3786 1 -0.0498724 -0.0132043 -0.047492 0.000116 -3.39024 -0.231042 3.34684 2650 
939 1 -0.0495013 -0.00807752 -0.0479006 0.000116 -3.24425 -0.164099 3.10965 2650 
259 1 -0.0498363 -0.0153281 -0.0470945 0.000423 -3.59922 -0.138763 3.62819 2650 
3242 1 -0.0502944 -0.0114546 -0.047036 0.000116 -4.03596 -0.589967 4.24532 2650 
437 1 -0.0514616 -0.0118769 -0.0458598 4.2e-05 -2.1788 -0.191762 2.58769 2650 
2817 1 -0.051305 -0.00670946 -0.045924 0.000116 -2.26992 -0.14765 2.54985 2650 
299 1 -0.0508596 -0.00201027 -0.0464552 0.000116 -2.77107 0.217877 3.02694 2650 
3210 1 -0.0504388 -0.00236584 -0.0464595 0.000423 -2.71784 0.183034 3.10213 2650 
3308 1 -0.0526124 -0.0185687 -0.0439852 0.000423 -3.68267 -0.119543 4.40541 2650 
1768 1 -0.0533478 -0.0206841 -0.042723 0.000656 -3.6474 0.0899719 4.50536 2650 
2928 1 -0.0539632 -0.017336 -0.0428105 0.000116 -3.65875 0.578027 4.64723 2650 
3426 1 -0.0546513 -0.0240114 -0.0414254 0.000423 -3.42691 0.625016 4.48505 2650 
1304 1 -0.0548415 -0.019004 -0.0416818 0.000116 -3.45353 -0.103765 4.52009 2650 
4139 1 -0.0557086 -0.015632 -0.0405154 0.000116 -3.60929 0.236532 4.94582 2650 
2612 1 -0.0564191 -0.0280665 -0.0395215 0.000116 -3.75767 -0.198975 5.42268 2650 
1905 1 -0.056617 -0.0315356 -0.0386984 0.000423 -3.58318 -0.0503776 5.2774 2650 
50 1 -0.0565417 -0.0197488 -0.0388074 0.000423 -2.89727 0.00674028 4.20566 2650 
1196 1 -0.0568724 -0.0115475 -0.0388673 0.000116 -2.31247 -0.206547 3.35138 2650 
2574 1 -0.0568475 -0.0190144 -0.0383571 0.000423 -2.96453 -0.0326018 4.35973 2650 
400 1 -0.0577243 -0.0337956 -0.0375891 0.000116 -3.2752 -0.450852 5.03223 2650 
358 1 -0.0574396 -0.0296117 -0.0374667 0.000423 -3.28416 -0.330005 5.02694 2650 
1314 1 -0.0578024 -0.0153862 -0.0376042 4.2e-05 -3.16266 -0.964833 4.90356 2650 
940 1 -0.0581033 -0.0287102 -0.0370011 0.000116 -3.21876 -0.180691 5.04897 2650 
689 1 -0.0582928 -0.0379795 -0.0361224 0.000423 -3.69803 -0.066026 6.00597 2650 
367 1 -0.0583065 -0.0243165 -0.0361004 0.000423 -3.56995 -0.222646 5.71689 2650 
3015 1 -0.0583004 -0.0167423 -0.0361098 0.000423 -3.18122 -0.00179239 5.17088 2650 
3154 1 -0.059127 -0.024447 -0.0353406 0.000116 -3.56737 -0.0832363 5.96841 2650 
2557 1 -0.0595784 -0.0300451 -0.0339631 0.000423 -3.11139 0.263347 5.48442 2650 
4087 1 -0.0595421 -0.0233626 -0.0340235 0.000423 -3.24808 0.12172 5.66304 2650 
3024 1 -0.0600777 -0.0300039 -0.0337009 0.000116 -3.10975 0.384786 5.54463 2650 
38 1 -0.0599884 -0.0238027 -0.0332328 0.000423 -3.17951 0.0437452 5.71366 2650 
2165 1 -0.0606076 -0.0347618 -0.0327368 0.000116 -2.43922 -0.686574 4.51668 2650 
2057 1 -0.0606133 -0.00794436 -0.0327271 0.000116 -2.42086 0.130998 4.53887 2650 
4116 1 -0.0607737 -0.00269559 -0.0324272 0.000116 -2.43103 -0.0503956 4.54879 2650 
1475 1 -0.0616191 -0.0361954 -0.0300994 0.000423 -2.36635 -0.0939778 4.88671 2650 
555 1 -0.0613937 -0.0331704 -0.0300344 0.000656 -3.12252 -0.0949457 6.40632 2650 
800 1 -0.0614691 -0.0217983 -0.0304057 0.000423 -1.78949 0.0424848 3.63807 2650 
3840 1 -0.0616578 -0.0445657 -0.029479 0.000656 -3.19863 0.059357 6.68148 2650 
2098 1 -0.0614925 -0.0191919 -0.029829 0.000656 -2.57808 -0.0132781 5.29186 2650 
1922 1 -0.0622401 -0.0106055 -0.0287947 0.000423 -2.22398 -0.193167 4.75877 2650 
2905 1 -0.0625536 -0.0252492 -0.0281063 0.000423 -2.52087 0.278226 5.6141 2650 
1630 1 -0.0628319 -0.0172605 -0.0282322 0.000116 -2.19298 -0.27262 5.00433 2650 
2546 1 -0.0630149 -0.0141101 -0.0270134 0.000423 -2.40525 -0.00678125 5.42519 2650 
375 1 -0.0629987 -0.0130744 -0.0270386 0.000423 -2.34464 -0.0434436 5.29864 2650 
1461 1 -0.063291 -0.0265948 -0.0264046 0.000423 -2.42346 -0.024591 5.86693 2650 
2457 1 -0.0634618 -0.0155669 -0.0259649 0.000423 -2.41492 -0.216541 5.9172 2650 
2259 1 -0.0640532 -0.0132863 -0.0252921 0.000116 -2.1237 0.772424 5.59496 2650 
336 1 -0.0636809 -0.0332417 -0.0248205 0.000656 -2.44933 0.0285932 6.25523 2650 
3974 1 -0.0639737 -0.0147402 -0.024697 0.000423 -2.25992 0.0538455 6.1232 2650 
427 1 -0.0645872 -0.0148462 -0.0239291 0.000116 -2.34426 -0.0418357 6.2477 2650 
1071 1 -0.0653523 -0.00578673 -0.0217693 0.000116 -1.884 -0.0961846 5.5415 2650 
4101 1 -0.0652209 -0.0278019 -0.0211959 0.000423 -1.921 -0.944703 5.89916 2650 
417 1 -0.0104965 -0.00364117 -0.0209845 0.000116 -1.45444 -0.0656197 -2.90769 2650 
1655 1 -0.0653091 -0.0387211 -0.0201455 0.000656 -2.1774 -0.0221476 6.97501 2650 
3319 1 -0.0658212 -0.0382304 -0.0192486 0.000423 -2.05467 0.0699434 7.01425 2650 
2976 1 -0.065981 -0.0109273 -0.0178252 0.000656 -0.980439 -0.530754 3.66686 2650 
2086 1 -0.0668094 -0.0149975 -0.0170789 4.2e-05 -0.898233 -0.139896 3.46872 2650 
606 1 -0.000183 0.00239935 -0.016592 0.000116 0 -0.011753 0 2650 
2520 1 -9.60459e-05 0.00441394 -0.0169143 4.2e-05 -0.0125271 0.0201098 0.013978 2650 
945 1 -0.0020166 0.0514667 -0.0166086 0.000116 -0.212975 -0.0939843 -0.00538188 2650 
3812 1 -0.0632042 -0.0424228 -0.0157041 0.000116 -8.2325 -0.409107 13.4401 2650 
2172 1 -0.00434568 -0.00152435 -0.0161932 0.000116 0.0682862 0.00746542 -0.00852403 2650 
30 1 -0.000871637 -0.000174991 -0.0162234 0.000423 -0.0136125 -0.0214967 0.00834717 2650 
2013 1 -0.00285444 0.00289073 -0.0160149 0.000423 -0.00154235 0.00221798 0.00156406 2650 
1679 1 -0.0038385 0.00344528 -0.0160155 0.000423 -0.00453729 0.0157155 0.00260015 2650 
2283 1 -0.00351977 0.00359326 -0.0164539 0.000116 -0.00010552 0.00956354 0.000789399 2650 
2301 1 -0.004222 0.00417235 -0.016305 4.2e-05 0 -0.011753 0 2650 
3121 1 -0.00131297 0.00514709 -0.0161991 0.000423 0.0292552 0.00121421 5.81941e-05 2650 
978 1 -0.00388535 0.00659509 -0.0162727 0.000116 0.0180122 -0.00353228 -0.00159853 2650 
3934 1 -0.001977 0.00716135 -0.016218 0.000116 0 -0.011753 0 2650 
289 1 -0.00270289 0.0096965 -0.0164022 0.000116 -0.00850769 0.000708308 0.0302001 2650 
3500 1 -0.000667293 0.0108467 -0.0165591 4.2e-05 -0.0454796 -0.00333034 0.0313479 2650 
188 1 -0.00166221 0.0112392 -0.016551 0.000116 -0.0148612 0.0228045 0.00418427 2650 
2713 1 -0.000740469 0.0122669 -0.0164423 0.000116 0.00037122 0.035974 0.00535071 2650 
2924 1 -0.00386835 0.0133756 -0.0160556 0.000116 -0.059039 0.0353164 0.00422158 2650 
3644 1 -0.00114502 0.0128085 -0.0162122 0.000423 -0.000399523 0.00418678 0.0157329 2650 
148 1 -0.00161512 0.0355983 -0.0163003 0.000423 -0.155095 -0.146162 -0.0100659 2650 
4010 1 -0.00296137 0.0369959 -0.016284 0.000116 -0.0944465 0.099748 0.0197066 2650 
509 1 -0.00713406 -1.25777e-05 -0.0150315 0.000116 -0.0177725 -0.00949189 -0.00542934 2650 
736 1 -0.00551526 -3.43233e-05 -0.0156339 0.000116 -0.0307431 -0.0170391 0.0144389 2650 
3637 1 -0.00452272 0.00302117 -0.0155474 0.000423 -0.0121297 0.0118194 -0.00377228 2650 
2399 1 -0.002418 0.00261335 -0.015541 0.000116 0 -0.011753 0 2650 
2438 1 -0.00576341 0.00725408 -0.0150397 0.000423 -0.00364828 0.010897 0.00465106 2650 
2793 1 -0.000991394 0.00765289 -0.0150481 0.000423 0.0113251 0.0911454 -0.00570485 2650 
3830 1 -0.006879 0.00871335 -0.015411 4.2e-05 0 -0.011753 0 2650 
233 1 -0.00445326 0.0092919 -0.0154707 0.000423 0.0114684 -0.00558491 0.0116559 2650 
2969 1 -0.00192168 0.00934387 -0.0150941 0.000656 -0.00770999 0.0181957 -4.77754e-05 2650 
3177 1 -0.00059382 0.00872877 -0.0157563 4.2e-05 0.00917698 -0.00185525 -0.00666376 2650 
1483 1 -0.000368621 0.00940119 -0.0157854 0.000423 -0.00134867 0.0112238 -0.0085204 2650 
86 1 -0.00303967 0.00963031 -0.0150153 0.000116 -0.0196067 0.0126222 0.000798653 2650 
1617 1 -0.0015729 0.00999941 -0.0153295 0.000116 0.0304013 0.00375314 0.0183235 2650 
938 1 -0.00129521 0.0099438 -0.0154663 0.000116 -0.00972467 -0.0045752 -0.00099221 2650 
371 1 -0.000493614 0.0102493 -0.0157117 0.000423 -0.00202239 0.0122439 -0.00806147 2650 
3007 1 -0.0021675 0.0110817 -0.0157302 0.000423 -0.0135196 -0.00505473 -0.0280609 2650 
1839 1 -0.00012889 0.0141663 -0.0155618 0.000116 -0.0676852 0.0211351 0.0188737 2650 
4231 1 -0.000919146 0.0175632 -0.0152671 0.000116 -0.0134934 0.0153003 0.0304581 2650 
2167 1 -0.067367 -0.028392 -0.0143648 0.000116 -1.25301 -1.00898 5.77507 2650 
269 1 -0.000329979 -0.00258719 -0.0142178 0.000423 -0.0067037 -0.0325502 -0.00931701 2650 
2666 1 -0.00670086 -0.00233233 -0.0144326 0.000423 0.0429038 -0.00888448 0.00629481 2650 
2965 1 -0.0674053 -0.00131189 -0.0145495 4.2e-05 -1.08124 0.484486 5.03307 2650 
1053 1 -0.007469 -0.00122865 -0.014946 0.000116 0 -0.011753 0 2650 
1991 1 -0.00648247 0.000386377 -0.014677 0.000656 -0.019376 -0.00203791 0.00870126 2650 
3239 1 -0.00507872 0.00148225 -0.0148989 0.000116 -0.0248133 -0.00752354 0.0120924 2650 
857 1 -0.00119132 0.00143298 -0.0149912 0.000116 -0.0623021 0.0193526 0.00200378 2650 
3587 1 -0.00710865 0.00303132 -0.0144004 0.000116 -0.0579635 0.0255056 0.0285778 2650 
150 1 -0.00679415 0.00268695 -0.0147024 0.000423 -0.0542472 0.016714 0.0257745 2650 
220 1 -0.00350499 0.00301802 -0.0144069 4.2e-05 0.00197382 0.00663681 0.00671825 2650 
1388 1 -0.00348386 0.00535011 -0.0148588 0.000116 -0.039288 0.0021603 0.0169103 2650 
3365 1 -0.002315 0.00503935 -0.014552 0.000116 0 -0.011753 0 2650 
4227 1 -0.00058059 0.00571872 -0.0144139 0.000116 0.00143204 -0.0228975 -0.0290312 2650 
963 1 -0.00712803 0.00714156 -0.0142909 0.000116 0.00350227 -0.00324664 0.0156587 2650 
2313 1 -0.0041076 0.00732042 -0.0144645 0.000656 0.0121795 0.0249345 0.010824 2650 
581 1 -0.0056422 0.00802307 -0.0146108 0.000423 -0.000593495 -0.0101803 -0.00423903 2650 
3669 1 -9.48249e-05 0.0102274 -0.0148379 0.000423 0.00311727 -0.00583333 -0.00141597 2650 
1228 1 -0.00160549 0.0108154 -0.0149794 0.000423 -0.0026547 0.0243513 0.000515369 2650 
1173 1 -0.00865783 0.0558716 -0.0142357 0.000116 -0.116035 0.351461 0.088319 2650 
2827 1 -0.00636865 -0.00264086 -0.0141393 0.000116 0.00705037 -0.0435835 0.021739 2650 
186 1 -0.00187086 -0.00303547 -0.0140297 0.000116 -0.0548922 -0.0357269 0.0179676 2650 
2332 1 -0.00503842 -0.000357179 -0.0137832 0.000423 -0.0114447 -0.00779769 0.00753018 2650 
623 1 -0.00720636 5.80299e-06 -0.0139078 0.000116 -0.0192086 -0.00896372 0.0230222 2650 
2922 1 -0.00718375 0.00140126 -0.0139958 0.000116 -0.00925852 -0.000802711 0.00675368 2650 
676 1 -0.00417105 0.00216898 -0.013918 0.000423 -0.0247905 0.00447638 0.0282863 2650 
2512 1 -0.00832637 0.00311493 -0.0135232 0.000116 0.018779 -0.0192413 0.00230208 2650 
1032 1 -0.00642346 0.00337349 -0.0137087 0.000423 0.0299121 -0.00820922 0.0127278 2650 
1684 1 -5.45352e-05 0.0034918 -0.0137907 0.000423 -0.00348729 -0.0115683 0.00145358 2650 
2913 1 -0.00867597 0.00531294 -0.0136381 0.000116 -0.0140945 -0.0228944 -0.00540615 2650 
1192 1 -0.00622822 0.00480589 -0.0135317 0.000116 -0.0160738 0.0171838 -0.0228619 2650 
2918 1 -0.0075541 0.00594532 -0.0141593 0.000116 0.0149777 0.0131491 0.0124233 2650 
2344 1 -0.0005507 0.00577371 -0.0136436 0.000423 0.00575909 -0.0231993 -0.0217047 2650 
2322 1 -0.00887644 0.00647435 -0.0135116 0.000656 -0.00551701 -0.0136996 -0.00131915 2650 
1288 1 -0.002467 0.00634235 -0.014044 0.000116 0 -0.011753 0 2650 
1618 1 -0.00989074 0.00757159 -0.0135546 0.000116 -0.0137545 -0.0162658 0.0115936 2650 
3515 1 -0.00785151 0.00722434 -0.0139708 0.000656 -0.0100504 -0.00967393 0.00145301 2650 
2222 1 -0.000778526 0.00767015 -0.0142036 0.000423 0.00146823 0.00147039 0.0229484 2650 
1250 1 -0.00842785 0.00798858 -0.0134249 0.000423 -0.00730125 -0.00574558 -0.000431452 2650 
4257 1 -0.00782716 0.00806172 -0.0137187 0.000116 -0.00578911 -0.00907208 0.00958653 2650 
1769 1 -0.00728246 0.00861844 -0.0138885 0.000656 -0.0119975 -0.000929742 -0.00815259 2650 
1237 1 -0.00937104 0.00879452 -0.0134862 0.000423 0.00205875 0.0105454 -1.45263e-05 2650 
4190 1 -0.00860577 0.0087392 -0.0140428 0.000423 0.00475473 0.00488139 -0.00345892 2650 
2092 1 -0.00598255 0.00908106 -0.0142001 0.000656 -0.0434988 0.00182259 -0.0432859 2650 
1476 1 -0.00715069 0.00986002 -0.013435 0.000423 -0.00430855 0.00299287 4.96068e-07 2650 
1827 1 -0.00696899 0.0100787 -0.0140828 0.000116 0.0104858 0.011057 0.025833 2650 
1409 1 -0.00044 0.0101224 -0.013868 0.000116 0 -0.011753 0 2650 
2182 1 -5.30631e-05 0.0103779 -0.0135144 0.000116 -0.0273815 0.022445 -0.0411396 2650 
478 1 -0.00666973 0.0151517 -0.0135658 0.000423 0.0184535 0.00116934 0.020279 2650 
1195 1 -0.00871871 0.0271061 -0.013556 0.000116 0.0557766 0.0782116 -0.0138054 2650 
2643 1 -0.00477607 0.0297242 -0.0140619 0.000656 -0.0823633 0.0688822 0.0201377 2650 
352 1 -0.00284235 0.0356629 -0.0137262 0.000423 0.0736471 -0.159457 0.0441779 2650 
3279 1 -0.00263078 0.0478 -0.0135097 0.000116 0.0698602 -0.118112 -0.0910458 2650 
618 1 -0.0676192 -0.0403306 -0.013138 0.000116 -1.30363 0.300734 6.79156 2650 
3227 1 -0.0674006 -0.026321 -0.0126359 0.000423 -1.19133 -0.0327257 6.32878 2650 
4142 1 -0.0676659 -0.0135111 -0.0128999 0.000116 -0.913855 -0.0212871 4.81648 2650 
1690 1 -0.00672816 -0.00346883 -0.0131804 0.000423 -0.759141 -0.0469103 -1.48715 2650 
4097 1 -0.00806972 -0.00283119 -0.0126695 0.000423 0.0222564 -0.0142204 -0.0225559 2650 
1022 1 -0.00338548 -0.000869765 -0.0132814 0.000423 -0.00789737 0.00635626 0.0363748 2650 
3191 1 -0.00851743 -0.000209614 -0.0126534 0.000656 -0.0137519 -0.00733615 -0.00341624 2650 
3551 1 -0.00746472 0.000597866 -0.0126366 0.000423 -0.015336 0.00523015 0.00637389 2650 
4126 1 -0.00646287 0.000676718 -0.0130033 0.000116 -0.0261531 0.0084042 0.00402279 2650 
2525 1 -0.004063 0.000569351 -0.013231 4.2e-05 0 -0.011753 0 2650 
2619 1 -0.005851 0.00138535 -0.012854 0.000116 0 -0.011753 0 2650 
3477 1 -0.00546534 0.00125326 -0.0128395 0.000116 0.0183398 -0.0587002 0.0125841 2650 
3880 1 -0.010277 0.00230135 -0.012913 0.000423 0 -0.011753 0 2650 
2609 1 -0.00886 0.00210935 -0.013248 0.000116 0 -0.011753 0 2650 
3733 1 -0.00798384 0.00223367 -0.0127578 0.000656 -0.023221 0.0173181 0.0154659 2650 
4165 1 -0.00517402 0.00202621 -0.0132133 0.000656 0.000175449 -0.0318835 0.00808201 2650 
3917 1 -0.003984 0.00287035 -0.012703 0.000116 0 -0.011753 0 2650 
2059 1 -0.003583 0.00307935 -0.012756 0.000116 0 -0.011753 0 2650 
3316 1 -0.00927958 0.00364969 -0.0128602 0.000423 -0.00544519 -0.0183171 -0.00879554 2650 
1171 1 -0.00785717 0.00349109 -0.0133692 0.000116 0.0131753 -0.0110464 0.0150896 2650 
3446 1 -0.00153302 0.00467799 -0.0128583 0.000423 0.014297 -0.016402 -0.00312272 2650 
1427 1 -0.002948 0.00541035 -0.013376 4.2e-05 0 -0.011753 0 2650 
4078 1 -0.0104435 0.00583933 -0.0127511 0.000423 -0.000913784 0.00267709 0.00687214 2650 
3950 1 -0.00710233 0.00579069 -0.0128862 0.000656 0.000588401 -0.011021 0.0254098 2650 
2912 1 -0.00549913 0.00574799 -0.0131681 0.000116 0.00196064 0.0151142 0.00117299 2650 
1611 1 -0.00503488 0.00601135 -0.012984 0.000116 0.0134772 -0.0209987 -0.0751807 2650 
445 1 -0.00987936 0.00710197 -0.0127744 0.000656 -0.00772698 -0.00205071 -0.00501702 2650 
3259 1 -0.00889674 0.00696629 -0.0128003 0.000116 0.00136236 -0.0113258 0.00321419 2650 
3702 1 -0.00102054 0.00709104 -0.0131004 0.000116 0.051128 0.0233268 -0.0546565 2650 
1795 1 -0.00891199 0.00759301 -0.012831 0.000423 -0.00333027 -0.00705618 0.0037936 2650 
4179 1 -0.00771047 0.00724924 -0.0127931 0.000423 -0.00767678 -0.0221048 -0.00852388 2650 
2483 1 -0.00773227 0.00862424 -0.0129771 0.000116 0.0222317 -0.00887276 -0.000700143 2650 
450 1 -0.00564152 0.00848415 -0.0127307 0.000656 0.013211 0.0358504 0.00701127 2650 
205 1 -0.000744 0.00812635 -0.01334 0.000116 0 -0.011753 0 2650 
3847 1 -0.00949046 0.00965864 -0.0128507 0.000656 0.00218348 0.0145646 -0.00497691 2650 
2453 1 -0.00617299 0.00954629 -0.0128578 0.000423 -0.00937165 0.0378174 -0.00987832 2650 
2781 1 -0.0059473 0.0102032 -0.0133561 0.000423 -0.00442793 0.0056962 -0.0279247 2650 
1775 1 -0.00823318 0.0109194 -0.0130682 0.000423 -7.29146e-05 -0.011186 -0.000346901 2650 
1986 1 -0.00243886 0.0107708 -0.013051 0.000656 0.00762539 0.0149956 0.0116892 2650 
3150 1 -0.000370915 0.010983 -0.013174 0.000116 -0.0182263 -0.0087302 -0.0269448 2650 
3163 1 -0.00705156 0.0117722 -0.0128251 0.000116 -0.0370466 0.0283549 -0.0433006 2650 
1802 1 -0.0037619 0.0124312 -0.0128945 0.000423 0.00500259 -0.000364755 -0.0111755 2650 
949 1 -0.00775035 0.0129437 -0.0131709 0.000116 -0.0176518 0.0277962 -0.00593252 2650 
3106 1 -0.0102637 0.0136353 -0.0128251 0.000423 -0.0206172 0.0214611 0.0323953 2650 
1143 1 -0.000299115 0.0152824 -0.0129784 0.000423 0.0070315 0.0110531 -0.00616027 2650 
2466 1 -0.00860321 0.0191306 -0.0130327 0.000423 0.048327 0.0396991 -0.0547289 2650 
1124 1 -0.00546198 0.0346414 -0.0127329 0.000423 0.115227 0.0704534 -0.0460588 2650 
4245 1 -0.00979581 0.0505993 -0.0133389 0.000116 -0.108278 0.145073 0.0575558 2650 
2021 1 -0.00866811 0.0559058 -0.013154 0.000423 0.116353 0.19793 -0.0604576 2650 
1763 1 -0.001143 -0.00274465 -0.012442 0.000656 0 -0.011753 0 2650 
3576 1 -0.00629461 -0.00150766 -0.0123223 0.000116 0.0561059 0.00120064 -0.0311085 2650 
1422 1 -0.003881 -0.000898649 -0.012349 4.2e-05 0 -0.011753 0 2650 
3599 1 -0.00184323 -0.00111676 -0.0122658 0.000116 0.00758272 -0.00512374 -0.0536854 2650 
2468 1 -0.00691723 -0.000586446 -0.0121168 0.000423 -0.0504222 0.0211365 0.000191011 2650 
1799 1 -0.00322555 -9.61718e-05 -0.0120535 0.000423 7.10678e-05 -0.0118308 4.63239e-05 2650 
3389 1 -0.010415 0.00136735 -0.012026 0.000116 0 -0.011753 0 2650 
3956 1 -0.00911535 0.00092926 -0.0123244 0.000656 -0.00662715 -0.00118174 0.00160858 2650 
541 1 -0.00730982 0.0013727 -0.0120444 4.2e-05 -0.0143735 0.00954058 0.00936495 2650 
3826 1 -0.00921943 0.00315348 -0.0125332 0.000116 -0.000556987 -0.0170562 0.000917958 2650 
2474 1 -0.00278942 0.00328466 -0.011992 0.000423 0.0453739 -0.000641145 -0.0467192 2650 
708 1 -0.00208666 0.00388889 -0.0121952 0.000423 0.0112279 -0.00894022 0.00239788 2650 
411 1 -0.0110203 0.00407522 -0.0120962 0.000116 -0.00787832 -0.00657823 -8.20909e-05 2650 
3787 1 -0.00659954 0.0041971 -0.0125787 0.000116 -0.0024271 -0.00223267 -0.0195234 2650 
2194 1 -0.00193698 0.00473529 -0.0123091 4.2e-05 0.00491046 0.00111596 0.00228026 2650 
3221 1 -0.0103282 0.00528983 -0.0121173 0.000423 -0.0256858 -0.00877572 0.00523783 2650 
1261 1 -0.00746003 0.00479401 -0.0125421 0.000423 -0.000156549 -0.00211811 -0.00151993 2650 
763 1 -0.00616521 0.00531984 -0.0122762 4.2e-05 -0.0107376 -0.0192397 -0.014763 2650 
3322 1 -0.00340683 0.00548405 -0.0120576 0.000423 0.00110678 0.0140263 0.0123959 2650 
3362 1 -0.00263812 0.00491882 -0.0125896 0.000116 0.000350619 -0.00253681 -0.00404217 2650 
3030 1 -0.001189 0.00552535 -0.012596 0.000116 0 -0.011753 0 2650 
1645 1 -0.00635811 0.00561672 -0.0118555 4.2e-05 0.0229874 0.010571 0.00467637 2650 
2957 1 -0.000196257 0.00614703 -0.0122765 4.2e-05 0.0205169 0.0248349 -0.000218849 2650 
3364 1 -0.00660131 0.0068691 -0.0123698 0.000116 -0.00179506 0.0163753 -0.0232219 2650 
104 1 -0.00342797 0.00688062 -0.0123991 4.2e-05 -0.00674979 0.0150481 0.0116551 2650 
4318 1 -0.00855947 0.00722454 -0.0121392 0.000423 0.000766946 -0.00630486 0.00294055 2650 
2630 1 -0.001036 0.00786235 -0.012074 4.2e-05 0 -0.011753 0 2650 
4002 1 -0.000443 0.00768635 -0.01223 0.000116 0 -0.011753 0 2650 
3310 1 -0.00360593 0.00888755 -0.0119277 0.000423 -0.033236 -0.00295172 -0.012167 2650 
1423 1 -0.00145 0.00934235 -0.012526 4.2e-05 0 -0.011753 0 2650 
2798 1 -0.00701971 0.00998205 -0.0124717 0.000423 0.0168646 0.022512 -0.0112906 2650 
3383 1 -0.01126 0.0110891 -0.0122901 0.000116 -0.0333343 0.0464529 -0.0437653 2650 
3145 1 -0.00721442 0.0117202 -0.0121893 0.000116 -0.0186098 0.0309384 -0.020461 2650 
70 1 -0.00777618 0.0116527 -0.0120123 0.000116 0.0556946 -0.0955337 -0.10896 2650 
3838 1 -0.00577759 0.0110862 -0.0123225 0.000656 0.0059045 0.0308137 -0.0288407 2650 
508 1 -0.0113952 0.0126385 -0.0123588 0.000116 -0.0280873 0.0464724 0.0432079 2650 
3632 1 -0.0108787 0.012837 -0.0123437 0.000423 -0.014465 0.00138694 0.0188993 2650 
2205 1 -0.00526879 0.0132851 -0.0123651 0.000656 -0.00206311 0.000112593 -0.00429342 2650 
959 1 -0.00999381 0.0166669 -0.0119412 0.000116 -0.0124197 0.0522228 0.0447896 2650 
1717 1 -0.00252726 0.0237178 -0.0125349 0.000116 -0.014717 0.0706098 -0.0348682 2650 
4234 1 -0.00356744 0.027995 -0.0122846 0.000116 -0.0277623 0.0670651 -0.0707711 2650 
3694 1 -0.0293038 -0.00369921 -0.0118077 0.000116 -4.18189 -0.0708168 -1.68505 2650 
2062 1 -0.0104093 -0.00340207 -0.011368 0.000116 -0.356348 -0.0884846 -0.330292 2650 
3093 1 -0.00302058 -0.00266763 -0.0110979 0.000423 -0.000676928 -0.0109568 -0.00158381 2650 
440 1 -0.00061 -0.00243465 -0.011485 4.2e-05 0 -0.011753 0 2650 
222 1 -0.00331156 -0.00135524 -0.0118074 0.000656 -0.0154066 -0.0201332 0.053235 2650 
3894 1 -0.005583 0.000736351 -0.011098 0.000116 0 -0.011753 0 2650 
1063 1 -0.009531 0.00129135 -0.011683 0.000116 0 -0.011753 0 2650 
1272 1 -0.000304368 0.0013693 -0.0111137 0.000116 0.0410752 -0.0207378 -0.0481879 2650 
2473 1 -0.00950736 0.00214859 -0.0116787 0.000423 -0.0100024 -0.0039026 -0.049665 2650 
545 1 -0.00144877 0.00222112 -0.0117773 4.2e-05 0.0164356 0.0574887 0.091312 2650 
3645 1 -0.00829306 0.0030449 -0.0114156 0.000423 -0.0357151 -0.0039173 0.0164321 2650 
3201 1 -0.00671289 0.00291082 -0.0117118 0.000423 -0.00608722 0.0216696 0.0089772 2650 
2294 1 -0.004894 0.00297235 -0.011565 0.000116 0 -0.011753 0 2650 
4300 1 -0.00180757 0.00304893 -0.0117205 0.000423 0.0464595 0.0171624 -0.0680193 2650 
889 1 -0.00365453 0.00324976 -0.011315 0.000656 0.0239908 0.0133229 -0.0547828 2650 
2285 1 -0.0103585 0.00468134 -0.0115634 0.000116 0.0175306 0.0103543 0.003719 2650 
878 1 -0.00393554 0.00439768 -0.011251 4.2e-05 -0.000281569 -0.00211859 -0.00050102 2650 
1758 1 -0.00201 0.00428635 -0.01144 4.2e-05 0 -0.011753 0 2650 
1824 1 -3.05922e-05 0.0047171 -0.0112942 0.000116 0.035459 -0.0138627 -0.0112756 2650 
4027 1 -0.003218 0.00541735 -0.011075 0.000116 0 -0.011753 0 2650 
2409 1 -0.002586 0.00535635 -0.011527 4.2e-05 0 -0.011753 0 2650 
3727 1 -0.00467035 0.00630941 -0.0113462 4.2e-05 -0.00143931 -0.00938471 -0.0055359 2650 