ITEM: TIMESTEP
291546
ITEM: NUMBER OF ATOMS
4382
ITEM: BOX BOUNDS ff ff ff
-0.15 0.15
-0.15 0.06
-0.15 0.15
ITEM: ATOMS id type x y z radius vx vy vz density 
3810 1 -0.0279911 -0.0524149 -0.0493464 0.000116 -4.25037 -5.82941 -7.95106 2650 
1845 1 -0.00510199 -0.0306123 -0.0632494 0.000116 0.148812 -3.55323 -11.7122 2650 
606 1 -0.000183 0.005273 -0.016592 0.000116 0 -0.011753 0 2650 
3503 1 -0.00130318 0.0125578 -0.0166939 4.2e-05 0.166646 -0.206491 -0.250799 2650 
2713 1 -0.000763 0.012244 -0.016767 0.000116 0 -0.011753 0 2650 
4116 1 -0.004072 -0.000383999 -0.016193 0.000116 0 -0.011753 0 2650 
93 1 -0.00354 2.7001e-05 -0.016299 0.000116 0 -0.011753 0 2650 
4187 1 -0.000997032 9.74066e-05 -0.0158562 0.000423 -0.217614 -0.744627 -0.270686 2650 
1991 1 -0.002768 0.001606 -0.01599 0.000656 0 -0.011753 0 2650 
736 1 -0.003429 0.003198 -0.016474 0.000116 0 -0.011753 0 2650 
3645 1 -0.00077526 0.00320724 -0.0160174 0.000423 -0.0852993 0.0423324 -0.125763 2650 
2013 1 -0.003166 0.004377 -0.016002 0.000423 0 -0.011753 0 2650 
2301 1 -0.004222 0.007046 -0.016305 4.2e-05 0 -0.011753 0 2650 
3546 1 -0.002797 0.006335 -0.016252 0.000423 0 -0.011753 0 2650 
188 1 -0.00068 0.006815 -0.016516 0.000116 0 -0.011753 0 2650 
3616 1 -0.000938 0.00761 -0.016074 4.2e-05 0 -0.011753 0 2650 
3934 1 -0.001977 0.010035 -0.016218 0.000116 0 -0.011753 0 2650 
1357 1 -0.001313 0.010451 -0.015969 0.000423 0 -0.011753 0 2650 
225 1 -4e-05 0.011618 -0.015887 0.000656 0 -0.011753 0 2650 
1654 1 -0.00243994 0.0133099 -0.0160211 0.000656 0.0136057 0.338402 -0.793576 2650 
1371 1 -0.00145895 0.0128449 -0.0163467 0.000423 0.289323 -0.0984589 -0.204701 2650 
2806 1 -0.00191 -0.00268 -0.015728 0.000116 0 -0.011753 0 2650 
691 1 -0.000661 -0.002741 -0.015761 0.000423 0 -0.011753 0 2650 
3441 1 -0.005522 -0.00205 -0.01502 0.000423 0 -0.011753 0 2650 
330 1 -0.001698 -0.000708999 -0.015557 4.2e-05 0 -0.011753 0 2650 
3733 1 -0.002363 -0.000661999 -0.015249 0.000656 0 -0.011753 0 2650 
3156 1 -0.00158959 -0.000378547 -0.0151918 0.000116 -0.376941 -0.74854 0.0241021 2650 
4038 1 -0.001501 -0.000690999 -0.015239 0.000116 0 -0.011753 0 2650 
2965 1 -2.2e-05 -0.000402999 -0.015341 4.2e-05 0 -0.011753 0 2650 
3385 1 -0.00560678 0.00215298 -0.0154262 0.000116 0.172483 -0.186333 0.390817 2650 
1679 1 -0.00364476 0.00371732 -0.0153803 0.000423 -0.00171971 -0.000820303 0.00170729 2650 
1569 1 -0.001572 0.003842 -0.015407 0.000423 0 -0.011753 0 2650 
3147 1 -0.001711 0.00439 -0.015157 0.000116 0 -0.011753 0 2650 
2399 1 -0.002418 0.005487 -0.015541 0.000116 0 -0.011753 0 2650 
4296 1 -0.00156256 0.00608257 -0.0155028 0.000423 -0.000356005 -0.0132873 -0.00240934 2650 
1986 1 -0.00410574 0.00701668 -0.0153204 0.000656 -0.00578738 0.0209481 -0.0282702 2650 
728 1 -0.00166872 0.0066868 -0.0152296 0.000116 -0.0974289 0.166407 -0.102141 2650 
3789 1 -0.002891 0.00739 -0.015118 0.000116 0 -0.011753 0 2650 
2969 1 -0.001381 0.008057 -0.015354 0.000656 0 -0.011753 0 2650 
978 1 -0.005372 0.008733 -0.015286 0.000116 0 -0.011753 0 2650 
2763 1 -0.00349443 0.00948244 -0.0157766 0.000423 -0.0510494 -0.387675 -0.552094 2650 
3830 1 -0.006879 0.011587 -0.015411 4.2e-05 0 -0.011753 0 2650 
86 1 -0.002064 0.011291 -0.015055 0.000116 0 -0.011753 0 2650 
3177 1 -0.001068 0.011091 -0.015412 4.2e-05 0 -0.011753 0 2650 
938 1 -0.000869 0.012497 -0.015416 0.000116 0 -0.011753 0 2650 
3632 1 -0.006134 0.013213 -0.015144 0.000423 0 -0.011753 0 2650 
843 1 -0.00721086 -0.00447943 -0.0144877 0.000116 -1.23085 -0.602197 -0.992037 2650 
2256 1 -0.001753 -0.002599 -0.014775 0.000116 0 -0.011753 0 2650 
747 1 -0.001416 -0.002579 -0.014317 0.000116 0 -0.011753 0 2650 
3502 1 -0.001236 -0.001604 -0.014816 4.2e-05 0 -0.011753 0 2650 
1640 1 -0.001358 -0.000270999 -0.014495 4.2e-05 0 -0.011753 0 2650 
2313 1 -0.005044 0.000573001 -0.014923 0.000656 0 -0.011753 0 2650 
2413 1 -0.003433 0.000411001 -0.014868 4.2e-05 0 -0.011753 0 2650 
1053 1 -0.007469 0.001645 -0.014946 0.000116 0 -0.011753 0 2650 
249 1 -0.00605784 0.00158394 -0.0147554 0.000423 -0.52877 -0.450928 -0.107315 2650 
2332 1 -0.003268 0.001936 -0.014853 0.000423 0 -0.011753 0 2650 
3239 1 -0.002155 0.001855 -0.014442 0.000116 0 -0.011753 0 2650 
1589 1 -0.00696882 0.00315548 -0.0146561 0.000423 -0.125399 0.0361393 0.00480898 2650 
2547 1 -0.00612649 0.00293434 -0.014729 0.000423 -0.0835247 0.0612723 -0.0363848 2650 
220 1 -0.003649 0.00455 -0.014897 4.2e-05 0 -0.011753 0 2650 
3121 1 -0.007407 0.005369 -0.014654 0.000423 0 -0.011753 0 2650 
4165 1 -0.005563 0.004899 -0.014782 0.000656 0 -0.011753 0 2650 
104 1 -0.00218 0.004799 -0.014554 4.2e-05 0 -0.011753 0 2650 
3322 1 -0.00397486 0.00608605 -0.0146942 0.000423 -0.0209456 -0.0191109 -0.033031 2650 
2438 1 -0.005612 0.007848 -0.014612 0.000423 0 -0.011753 0 2650 
3564 1 -0.000147 0.007276 -0.014738 0.000423 0 -0.011753 0 2650 
713 1 -0.003882 0.008157 -0.014783 0.000423 0 -0.011753 0 2650 
3365 1 -0.002315 0.007913 -0.014552 0.000116 0 -0.011753 0 2650 
1346 1 -0.00132463 0.00906431 -0.0142576 0.000423 0.0189012 0.200544 -0.105528 2650 
4190 1 -0.007319 0.009583 -0.014559 0.000423 0 -0.011753 0 2650 
3515 1 -0.004726 0.009912 -0.014755 0.000656 0 -0.011753 0 2650 
884 1 -0.00398435 0.0114923 -0.0148346 0.000656 -0.0378318 0.0387573 -0.0430688 2650 
1228 1 -0.001302 0.011368 -0.014946 0.000423 0 -0.011753 0 2650 
371 1 -0.000507 0.011166 -0.014221 0.000423 0 -0.011753 0 2650 
1525 1 -0.00479002 0.0144479 -0.0148223 0.000116 -0.322985 0.455003 -0.523258 2650 
1173 1 -0.00635917 0.0198913 -0.0146348 0.000116 -0.970948 1.58155 -1.14727 2650 
3229 1 -0.006614 -0.002481 -0.01374 0.000423 0 -0.011753 0 2650 
1943 1 -0.002925 -0.003053 -0.01374 0.000116 0 -0.011753 0 2650 
2705 1 -0.001432 -0.002542 -0.013674 0.000116 0 -0.011753 0 2650 
3622 1 -0.005521 -0.001717 -0.013445 0.000656 0 -0.011753 0 2650 
327 1 -0.003849 -0.002361 -0.013874 4.2e-05 0 -0.011753 0 2650 
1393 1 -0.009523 -0.001254 -0.013534 0.000116 0 -0.011753 0 2650 
2939 1 -0.008405 -0.001558 -0.013483 0.000116 0 -0.011753 0 2650 
2685 1 -0.006984 -0.000535999 -0.013534 0.000423 0 -0.011753 0 2650 
2783 1 -0.003328 -0.000218999 -0.013758 0.000423 0 -0.011753 0 2650 
4126 1 -0.001667 -0.000145999 -0.013741 0.000116 0 -0.011753 0 2650 
3303 1 -0.0065 0.000432001 -0.014199 0.000656 0 -0.011753 0 2650 
3778 1 -0.003893 0.001298 -0.013816 0.000423 0 -0.011753 0 2650 
1620 1 -0.008456 0.003317 -0.013856 0.000116 0 -0.011753 0 2650 
3587 1 -0.006279 0.004574 -0.013694 0.000116 0 -0.011753 0 2650 
1219 1 -0.005131 0.004014 -0.013785 0.000656 0 -0.011753 0 2650 
2485 1 -0.006627 0.004921 -0.014195 0.000116 0 -0.011753 0 2650 
1327 1 -0.00442978 0.00575651 -0.0136904 0.000656 -0.263945 0.118195 -0.00116974 2650 
2777 1 -0.00408151 0.00683783 -0.0139991 0.000423 -0.0156669 0.141209 -0.0360034 2650 
3035 1 -0.00875 0.00752 -0.013893 0.000116 0 -0.011753 0 2650 
4365 1 -0.00333326 0.00868522 -0.0141503 0.000116 -0.339926 0.407991 -0.0708734 2650 
1900 1 -0.00176136 0.00846465 -0.0134949 0.000423 -0.1762 0.273782 0.0946679 2650 
1288 1 -0.002467 0.009216 -0.014044 0.000116 0 -0.011753 0 2650 
1974 1 -0.0021 0.009937 -0.01365 4.2e-05 0 -0.011753 0 2650 
171 1 -0.001998 0.009838 -0.013459 0.000116 0 -0.011753 0 2650 
2222 1 -0.000169 0.009845 -0.014111 0.000423 0 -0.011753 0 2650 
581 1 -0.005568 0.010737 -0.014167 0.000423 0 -0.011753 0 2650 
4314 1 -0.002273 0.011044 -0.013891 0.000423 0 -0.011753 0 2650 
1476 1 -0.006941 0.012016 -0.013435 0.000423 0 -0.011753 0 2650 
3669 1 -0.000597 0.012122 -0.014068 0.000423 0 -0.011753 0 2650 
1409 1 -0.00044 0.012996 -0.013868 0.000116 0 -0.011753 0 2650 
3294 1 -0.0037356 0.0153942 -0.0135284 0.000656 -0.153178 0.532354 -0.151969 2650 
1957 1 -0.002061 -0.003251 -0.012986 0.000116 0 -0.011753 0 2650 
428 1 -0.00922 -0.002512 -0.013206 0.000116 0 -0.011753 0 2650 
3015 1 -0.008364 -0.002567 -0.013043 0.000423 0 -0.011753 0 2650 
827 1 -0.005975 -0.002685 -0.013005 0.000116 0 -0.011753 0 2650 
167 1 -0.004273 -0.002527 -0.012826 0.000116 0 -0.011753 0 2650 
2732 1 -0.002992 -0.002592 -0.013183 0.000116 0 -0.011753 0 2650 
3633 1 -0.00941 -0.001988 -0.013111 0.000423 0 -0.011753 0 2650 
1487 1 -0.004643 -0.002118 -0.013241 0.000116 0 -0.011753 0 2650 
508 1 -0.0044332 -0.000953595 -0.0133937 0.000116 0.265738 0.0515207 -0.878704 2650 
3295 1 -0.00163432 -0.00146681 -0.0132498 0.000656 -0.0326807 -0.0261897 -0.0816896 2650 
1924 1 -0.0105503 0.000200332 -0.0126532 0.000423 0.0561302 -0.0261987 -0.012502 2650 
3551 1 -0.005293 0.001357 -0.013215 0.000423 0 -0.011753 0 2650 
1901 1 -0.00256076 0.001825 -0.0132956 0.000423 -0.0507742 -0.0533762 0.0503681 2650 
1125 1 -0.000165 0.001944 -0.013134 0.000423 0 -0.011753 0 2650 
1059 1 -0.00667885 0.00267745 -0.0132423 0.000116 0.104302 0.290406 -0.257483 2650 
2701 1 -0.005757 0.002709 -0.013076 0.000116 0 -0.011753 0 2650 
4371 1 -0.000719 0.002755 -0.012831 0.000116 0 -0.011753 0 2650 
2283 1 -0.000701 0.00307 -0.012847 0.000116 0 -0.011753 0 2650 
2525 1 -0.004063 0.003443 -0.013231 4.2e-05 0 -0.011753 0 2650 
1595 1 -0.007474 0.004101 -0.012756 0.000423 0 -0.011753 0 2650 
2619 1 -0.005851 0.004259 -0.012854 0.000116 0 -0.011753 0 2650 
3880 1 -0.010277 0.005175 -0.012913 0.000423 0 -0.011753 0 2650 
2609 1 -0.00886 0.004983 -0.013248 0.000116 0 -0.011753 0 2650 
933 1 -0.00539873 0.00545602 -0.0131721 0.000423 -0.174807 0.0255832 -0.0142424 2650 
2194 1 -0.002781 0.005397 -0.012701 4.2e-05 0 -0.011753 0 2650 
3917 1 -0.003984 0.005744 -0.012703 0.000116 0 -0.011753 0 2650 
2059 1 -0.003583 0.005953 -0.012756 0.000116 0 -0.011753 0 2650 
4241 1 -0.00121 0.005828 -0.012987 0.000116 0 -0.011753 0 2650 
2918 1 -0.00757 0.006334 -0.012948 0.000116 0 -0.011753 0 2650 
4078 1 -0.005942 0.00728 -0.013134 0.000423 0 -0.011753 0 2650 
2322 1 -0.00688 0.008485 -0.013337 0.000656 0 -0.011753 0 2650 
1427 1 -0.002948 0.008284 -0.013376 4.2e-05 0 -0.011753 0 2650 
3259 1 -0.008055 0.009349 -0.013388 0.000116 0 -0.011753 0 2650 
4318 1 -0.007675 0.009023 -0.012829 0.000423 0 -0.011753 0 2650 
1769 1 -0.004822 0.010204 -0.013243 0.000656 0 -0.011753 0 2650 
1795 1 -0.008775 0.010283 -0.012959 0.000423 0 -0.011753 0 2650 
205 1 -0.000744 0.011 -0.01334 0.000116 0 -0.011753 0 2650 
4160 1 -0.006657 0.013366 -0.013271 4.2e-05 0 -0.011753 0 2650 
1775 1 -0.008218 0.013675 -0.012996 0.000423 0 -0.011753 0 2650 
3644 1 -0.000733 0.013671 -0.013392 0.000423 0 -0.011753 0 2650 
2722 1 -0.00504471 0.0155004 -0.0130366 0.000116 -0.375324 0.405951 -0.00725073 2650 
208 1 -0.00793692 -0.00462272 -0.0124219 0.000116 -1.04852 -0.355423 -2.21898 2650 
4068 1 -0.001953 -0.002826 -0.012327 0.000423 0 -0.011753 0 2650 
2957 1 -0.010592 -0.002308 -0.012102 4.2e-05 0 -0.011753 0 2650 
2238 1 -0.00701 -0.002094 -0.01254 0.000423 0 -0.011753 0 2650 
4150 1 -0.001319 -0.001983 -0.012208 0.000116 0 -0.011753 0 2650 
868 1 -0.000201 -0.002358 -0.012301 0.000116 0 -0.011753 0 2650 
3261 1 -0.010456 -0.001134 -0.012294 0.000116 0 -0.011753 0 2650 
3200 1 -0.006116 -0.001174 -0.012539 0.000423 0 -0.011753 0 2650 
2468 1 -0.003167 -0.000158999 -0.012131 0.000423 0 -0.011753 0 2650 
545 1 -0.002328 -0.000531999 -0.012432 4.2e-05 0 -0.011753 0 2650 
950 1 -0.010031 0.000734001 -0.011866 0.000116 0 -0.011753 0 2650 
250 1 -0.009469 0.000274001 -0.012384 0.000423 0 -0.011753 0 2650 
2819 1 -0.007468 2.00104e-06 -0.012046 0.000116 0 -0.011753 0 2650 
4056 1 -0.00634279 0.000311801 -0.0123469 0.000656 0.0462266 -0.0722383 -0.102085 2650 
1763 1 -0.001143 0.000129001 -0.012442 0.000656 0 -0.011753 0 2650 
3643 1 -0.004315 0.001176 -0.012192 0.000423 0 -0.011753 0 2650 
3637 1 -0.002026 0.001308 -0.012108 0.000423 0 -0.011753 0 2650 
3411 1 -0.009662 0.001903 -0.012148 0.000656 0 -0.011753 0 2650 
2253 1 -0.0063458 0.00225894 -0.0126002 0.000423 0.286576 0.281591 -0.131982 2650 
2293 1 -0.00578703 0.00193158 -0.0122028 0.000116 0.310609 0.0311192 0.0518803 2650 
1422 1 -0.003881 0.001975 -0.012349 4.2e-05 0 -0.011753 0 2650 
623 1 -0.005429 0.002482 -0.012246 0.000116 0 -0.011753 0 2650 
1799 1 -0.003237 0.00279 -0.012061 0.000423 0 -0.011753 0 2650 
2813 1 -1e-05 0.002642 -0.012237 0.000116 0 -0.011753 0 2650 
3956 1 -0.008956 0.003561 -0.012273 0.000656 0 -0.011753 0 2650 
2729 1 -0.00707317 0.00354442 -0.0120228 0.000116 -0.712481 0.0735545 1.08199 2650 
3201 1 -0.004366 0.003536 -0.012379 0.000423 0 -0.011753 0 2650 
2690 1 -0.000333 0.003413 -0.012265 0.000423 0 -0.011753 0 2650 
3389 1 -0.010415 0.004241 -0.012026 0.000116 0 -0.011753 0 2650 
856 1 -0.00389 0.00446 -0.0119 0.000116 0 -0.011753 0 2650 
1657 1 -0.008501 0.005432 -0.011991 0.000656 0 -0.011753 0 2650 
2471 1 -0.0059509 0.00540828 -0.0124591 0.000423 -0.122455 -0.0132527 0.0998415 2650 
411 1 -0.009436 0.005909 -0.012079 0.000116 0 -0.011753 0 2650 
3826 1 -0.009208 0.006136 -0.012552 0.000116 0 -0.011753 0 2650 
3316 1 -0.008979 0.006889 -0.012376 0.000423 0 -0.011753 0 2650 
1261 1 -0.007462 0.006793 -0.012403 0.000423 0 -0.011753 0 2650 
3362 1 -0.002672 0.006902 -0.012199 0.000116 0 -0.011753 0 2650 
1590 1 -0.008874 0.008083 -0.012037 0.000423 0 -0.011753 0 2650 
4066 1 -0.006253 0.008323 -0.011956 0.000656 0 -0.011753 0 2650 
3446 1 -0.002592 0.007896 -0.012627 0.000423 0 -0.011753 0 2650 
3030 1 -0.001189 0.008399 -0.012596 0.000116 0 -0.011753 0 2650 
70 1 -0.010029 0.009324 -0.01242 0.000116 0 -0.011753 0 2650 
191 1 -0.011348 0.00972 -0.012254 0.000116 0 -0.011753 0 2650 
1495 1 -0.004483 0.009867 -0.012591 0.000116 0 -0.011753 0 2650 
3847 1 -0.009739 0.010321 -0.012406 0.000656 0 -0.011753 0 2650 
1250 1 -0.007399 0.011046 -0.012448 0.000423 0 -0.011753 0 2650 
3173 1 -0.004958 0.010528 -0.012321 4.2e-05 0 -0.011753 0 2650 
2109 1 -0.001932 0.010667 -0.012277 0.000423 0 -0.011753 0 2650 
2630 1 -0.001036 0.010736 -0.012074 4.2e-05 0 -0.011753 0 2650 
4002 1 -0.000443 0.01056 -0.01223 0.000116 0 -0.011753 0 2650 
911 1 -0.00407193 0.0115752 -0.0123731 0.000423 -0.0142707 -0.015291 -0.00505979 2650 
65 1 -0.009488 0.011941 -0.011959 0.000116 0 -0.011753 0 2650 
1423 1 -0.00145 0.012216 -0.012526 4.2e-05 0 -0.011753 0 2650 
2483 1 -0.008006 0.013098 -0.012441 0.000116 0 -0.011753 0 2650 
1578 1 -0.007713 0.012937 -0.011972 0.000423 0 -0.011753 0 2650 
2205 1 -0.004822 0.013387 -0.012334 0.000656 0 -0.011753 0 2650 
704 1 -0.01034 -0.002779 -0.011479 0.000423 0 -0.011753 0 2650 
3999 1 -0.005715 -0.002623 -0.011742 0.000423 0 -0.011753 0 2650 
3679 1 -0.012092 -0.001821 -0.011604 0.000116 0 -0.011753 0 2650 
2072 1 -0.009308 -0.001959 -0.011721 0.000116 0 -0.011753 0 2650 
3191 1 -0.00336128 -0.0016366 -0.0114719 0.000656 -0.0505784 0.0119691 -0.00142744 2650 
3505 1 -0.006952 -0.000862999 -0.011235 4.2e-05 0 -0.011753 0 2650 
1022 1 -0.002093 -0.000992999 -0.011454 0.000423 0 -0.011753 0 2650 
123 1 -0.010848 -0.000298999 -0.011246 0.000423 0 -0.011753 0 2650 
2166 1 -0.009005 -0.000452999 -0.011549 0.000116 0 -0.011753 0 2650 
2022 1 -0.004959 -0.000297999 -0.011261 0.000423 0 -0.011753 0 2650 
3311 1 -0.00646602 0.000562736 -0.0110901 0.000423 -0.426786 0.143506 -0.100699 2650 
2827 1 -0.001988 0.000676001 -0.011163 0.000116 0 -0.011753 0 2650 
440 1 -0.00061 0.000439001 -0.011485 4.2e-05 0 -0.011753 0 2650 
4215 1 -0.011184 0.002548 -0.011524 0.000423 0 -0.011753 0 2650 
2279 1 -0.011345 0.003111 -0.01145 0.000116 0 -0.011753 0 2650 
2579 1 -0.008716 0.002558 -0.011261 0.000423 0 -0.011753 0 2650 
1826 1 -0.0064692 0.00260331 -0.0116301 0.000116 -0.285984 2.26891 -0.126399 2650 
1452 1 -0.00142 0.002378 -0.011258 0.000423 0 -0.011753 0 2650 
3535 1 -9.9e-05 0.002851 -0.011488 0.000423 0 -0.011753 0 2650 
3223 1 -0.010476 0.003653 -0.011335 0.000423 0 -0.011753 0 2650 
3894 1 -0.005583 0.00361 -0.011098 0.000116 0 -0.011753 0 2650 
1063 1 -0.009531 0.004165 -0.011683 0.000116 0 -0.011753 0 2650 
3383 1 -0.011681 0.00516 -0.011229 0.000116 0 -0.011753 0 2650 
3235 1 -0.006303 0.004962 -0.011812 0.000423 0 -0.011753 0 2650 
3542 1 -0.003838 0.005336 -0.011253 0.000423 0 -0.011753 0 2650 
2294 1 -0.004894 0.005846 -0.011565 0.000116 0 -0.011753 0 2650 
708 1 -0.00252 0.006042 -0.011391 0.000423 0 -0.011753 0 2650 
1822 1 -0.008034 0.006899 -0.011166 0.000116 0 -0.011753 0 2650 
234 1 -0.004437 0.006872 -0.011677 0.000423 0 -0.011753 0 2650 
878 1 -0.003908 0.006329 -0.011202 4.2e-05 0 -0.011753 0 2650 
1215 1 -0.009596 0.007453 -0.01151 0.000656 0 -0.011753 0 2650 
1758 1 -0.00201 0.00716 -0.01144 4.2e-05 0 -0.011753 0 2650 
4027 1 -0.003218 0.008291 -0.011075 0.000116 0 -0.011753 0 2650 
2409 1 -0.002586 0.00823 -0.011527 4.2e-05 0 -0.011753 0 2650 
222 1 -0.001264 0.008278 -0.011144 0.000656 0 -0.011753 0 2650 
2798 1 -0.008755 0.00933 -0.01131 0.000423 0 -0.011753 0 2650 
2913 1 -0.002971 0.008939 -0.011434 0.000116 0 -0.011753 0 2650 
823 1 -0.000639 0.009465 -0.011216 0.000423 0 -0.011753 0 2650 
1617 1 -0.00424 0.010219 -0.011492 0.000116 0 -0.011753 0 2650 
2596 1 -0.001219 0.009774 -0.011432 0.000116 0 -0.011753 0 2650 
3684 1 -0.00483 0.011501 -0.011273 0.000116 0 -0.011753 0 2650 
1935 1 -0.0025561 0.0115805 -0.0113398 0.000116 -0.0650223 -0.119388 0.0262199 2650 
1663 1 -0.009704 0.012614 -0.011499 0.000423 0 -0.011753 0 2650 
3145 1 -0.006381 0.012682 -0.011273 0.000116 0 -0.011753 0 2650 
1143 1 -0.00205165 0.0126899 -0.0116168 0.000423 0.00744219 0.00969658 -0.00437689 2650 
2111 1 -0.009632 0.013601 -0.011343 0.000423 0 -0.011753 0 2650 
976 1 -0.005828 0.014059 -0.011785 0.000116 0 -0.011753 0 2650 
3330 1 -0.00322096 -0.00365814 -0.0109819 0.000423 -0.388542 -0.54017 0.00757406 2650 
2820 1 -0.007052 -0.002603 -0.010962 0.000116 0 -0.011753 0 2650 
3265 1 -0.006001 -0.002615 -0.010684 0.000116 0 -0.011753 0 2650 
4373 1 -0.004239 -0.001597 -0.010869 4.2e-05 0 -0.011753 0 2650 
3426 1 -0.000992 -0.001857 -0.010574 0.000423 0 -0.011753 0 2650 
3603 1 -0.004768 -0.001259 -0.010424 0.000116 0 -0.011753 0 2650 
15 1 -0.001892 -0.001206 -0.010407 0.000423 0 -0.011753 0 2650 
2848 1 -0.010456 -0.000561999 -0.010698 4.2e-05 0 -0.011753 0 2650 
3640 1 -0.009654 -0.000400999 -0.010891 0.000423 0 -0.011753 0 2650 
2130 1 -0.000316 -0.000141999 -0.010491 0.000423 0 -0.011753 0 2650 
3960 1 -0.008634 0.000346001 -0.010875 0.000423 0 -0.011753 0 2650 
3093 1 -0.002889 3.3001e-05 -0.010782 0.000423 0 -0.011753 0 2650 
1193 1 -4.3e-05 0.000424001 -0.010628 0.000116 0 -0.011753 0 2650 
3866 1 -0.011939 0.0014 -0.01034 0.000423 0 -0.011753 0 2650 
281 1 -0.00973 0.001116 -0.010656 0.000116 0 -0.011753 0 2650 
388 1 -0.008271 0.000942001 -0.010879 0.000116 0 -0.011753 0 2650 
2542 1 -0.005905 0.001227 -0.010347 0.000423 0 -0.011753 0 2650 
3673 1 -0.00272 0.000888001 -0.010833 0.000423 0 -0.011753 0 2650 
3284 1 -0.001323 0.000913001 -0.010635 4.2e-05 0 -0.011753 0 2650 
3530 1 -0.000573 0.001383 -0.010526 0.000423 0 -0.011753 0 2650 
1233 1 -0.012882 0.002542 -0.010287 0.000423 0 -0.011753 0 2650 
4104 1 -0.009745 0.003301 -0.010868 0.000423 0 -0.011753 0 2650 
497 1 -0.00574 0.003536 -0.010398 0.000116 0 -0.011753 0 2650 
124 1 -0.005032 0.003441 -0.01051 0.000423 0 -0.011753 0 2650 
1192 1 -0.004051 0.00376 -0.010435 0.000116 0 -0.011753 0 2650 
2912 1 -0.006578 0.005703 -0.010859 0.000116 0 -0.011753 0 2650 
3787 1 -0.006362 0.006139 -0.010668 0.000116 0 -0.011753 0 2650 
861 1 -0.006339 0.00665 -0.010358 0.000116 0 -0.011753 0 2650 
760 1 -0.006943 0.006476 -0.010573 4.2e-05 0 -0.011753 0 2650 
2326 1 -0.011808 0.007429 -0.010725 0.000423 0 -0.011753 0 2650 
2948 1 -0.002008 0.007842 -0.010384 0.000116 0 -0.011753 0 2650 
2500 1 -0.010648 0.008025 -0.010771 0.000116 0 -0.011753 0 2650 
4166 1 -0.004213 0.008132 -0.01052 0.000656 0 -0.011753 0 2650 
3727 1 -0.004412 0.00878 -0.010287 4.2e-05 0 -0.011753 0 2650 
3456 1 -0.003405 0.008917 -0.010654 0.000423 0 -0.011753 0 2650 
1010 1 -0.011662 0.010038 -0.010903 0.000423 0 -0.011753 0 2650 
3132 1 -0.007716 0.010101 -0.01033 0.000116 0 -0.011753 0 2650 
2097 1 -0.00889 0.010594 -0.010395 0.000656 0 -0.011753 0 2650 
89 1 -0.003936 0.010646 -0.010466 0.000116 0 -0.011753 0 2650 
2861 1 -0.000559979 0.0110134 -0.0110336 0.000656 0.0605678 -0.014212 0.00425057 2650 
2759 1 -0.011495 0.011594 -0.010915 0.000656 0 -0.011753 0 2650 
1376 1 -0.009927 0.01134 -0.010971 0.000116 0 -0.011753 0 2650 
2261 1 -0.007381 0.011691 -0.010514 0.000116 0 -0.011753 0 2650 
2260 1 -0.008542 0.012312 -0.010892 0.000116 0 -0.011753 0 2650 
233 1 -0.004974 0.011927 -0.010958 0.000423 0 -0.011753 0 2650 
4167 1 -0.003538 0.012034 -0.010916 0.000656 0 -0.011753 0 2650 
499 1 -0.011613 0.013062 -0.010379 0.000116 0 -0.011753 0 2650 
1754 1 -0.008854 0.013168 -0.010611 4.2e-05 0 -0.011753 0 2650 
1913 1 -0.008189 0.013302 -0.010954 0.000423 0 -0.011753 0 2650 
3899 1 -0.004387 0.013186 -0.010427 0.000116 0 -0.011753 0 2650 
1802 1 -0.004638 0.012687 -0.010282 0.000423 0 -0.011753 0 2650 
3595 1 -0.007357 0.013871 -0.010628 0.000116 0 -0.011753 0 2650 
3767 1 -0.006013 0.013787 -0.010843 0.000423 0 -0.011753 0 2650 
963 1 -0.000669 0.01385 -0.010387 0.000116 0 -0.011753 0 2650 
734 1 -0.00257295 -0.00399678 -0.0101087 0.000116 -0.352181 -0.493612 -0.0486002 2650 
1068 1 -0.01118 -0.002802 -0.009643 0.000116 0 -0.011753 0 2650 
4285 1 -0.0094 -0.002667 -0.00984 0.000423 0 -0.011753 0 2650 
821 1 -0.00518809 -0.00263178 -0.0101249 0.000423 -0.102839 -0.168933 -0.196716 2650 
3933 1 -0.006596 -0.001896 -0.009623 0.000116 0 -0.011753 0 2650 
3652 1 -0.0109275 -0.00149141 -0.00958474 0.000423 -0.0103103 -0.0416486 0.00256542 2650 
939 1 -0.001916 -0.000839999 -0.009682 0.000116 0 -0.011753 0 2650 
3756 1 -0.00679476 -0.00019418 -0.0100763 0.000423 -0.261945 -0.0993671 0.0936614 2650 
417 1 -0.004944 -0.000529999 -0.009884 0.000116 0 -0.011753 0 2650 
1630 1 -0.00227 -0.000774999 -0.00958 0.000116 0 -0.011753 0 2650 
3460 1 -0.013084 0.000330001 -0.009951 0.000116 0 -0.011753 0 2650 
2778 1 -0.01202 0.000595001 -0.00976 0.000423 0 -0.011753 0 2650 
1750 1 -0.011512 0.001237 -0.01018 4.2e-05 0 -0.011753 0 2650 
1160 1 -0.010117 0.001453 -0.010115 0.000116 0 -0.011753 0 2650 
3264 1 -0.003542 0.001424 -0.010108 0.000116 0 -0.011753 0 2650 
1562 1 -0.002141 0.000995001 -0.010154 0.000423 0 -0.011753 0 2650 
2164 1 -0.012835 0.00186 -0.009898 0.000116 0 -0.011753 0 2650 
800 1 -0.00114 0.001714 -0.009738 0.000423 0 -0.011753 0 2650 
3832 1 -0.01255 0.002842 -0.009616 4.2e-05 0 -0.011753 0 2650 
2975 1 -0.011752 0.002473 -0.009985 0.000656 0 -0.011753 0 2650 
4374 1 -0.008921 0.002608 -0.009568 4.2e-05 0 -0.011753 0 2650 
3250 1 -0.008233 0.002581 -0.010036 0.000116 0 -0.011753 0 2650 
2436 1 -0.004867 0.00268929 -0.00969209 0.000423 -0.252436 -0.135024 0.0303665 2650 
3135 1 -0.00038 0.00239 -0.010152 0.000116 0 -0.011753 0 2650 
1717 1 -0.0100603 0.00374217 -0.0102533 0.000116 -1.26955 0.503155 -0.17149 2650 
1977 1 -0.006037 0.003851 -0.009842 4.2e-05 0 -0.011753 0 2650 
3324 1 -0.011243 0.004094 -0.009993 0.000423 0 -0.011753 0 2650 
3031 1 -0.011934 0.005351 -0.00971 0.000116 0 -0.011753 0 2650 
364 1 -0.008943 0.004811 -0.009746 0.000423 0 -0.011753 0 2650 
2474 1 -0.001928 0.005195 -0.009724 0.000423 0 -0.011753 0 2650 
3790 1 -0.012918 0.005782 -0.010098 0.000116 0 -0.011753 0 2650 
3116 1 -0.01058 0.005852 -0.009568 0.000423 0 -0.011753 0 2650 
4256 1 -0.007946 0.006545 -0.010197 0.000116 0 -0.011753 0 2650 
3364 1 -0.006241 0.006644 -0.010015 0.000116 0 -0.011753 0 2650 
958 1 -0.001223 0.00635 -0.009713 0.000116 0 -0.011753 0 2650 
1310 1 -0.011355 0.007904 -0.010263 4.2e-05 0 -0.011753 0 2650 
3071 1 -0.009089 0.008709 -0.009836 4.2e-05 0 -0.011753 0 2650 
3967 1 -0.007915 0.010181 -0.009637 0.000423 0 -0.011753 0 2650 
2581 1 -0.004751 0.009706 -0.01 0.000423 0 -0.011753 0 2650 
3784 1 -0.00735 0.010444 -0.00989 0.000116 0 -0.011753 0 2650 
2344 1 -0.001557 0.010607 -0.009839 0.000423 0 -0.011753 0 2650 
3361 1 -5.4e-05 0.010856 -0.010103 0.000116 0 -0.011753 0 2650 
301 1 -0.005514 0.011745 -0.009906 0.000116 0 -0.011753 0 2650 
660 1 -0.002925 0.012186 -0.009723 4.2e-05 0 -0.011753 0 2650 
1087 1 -0.005985 0.012998 -0.009545 0.000116 0 -0.011753 0 2650 
2781 1 -0.00300272 0.0132524 -0.0100183 0.000423 -0.0117237 -0.0176724 0.00043508 2650 
1827 1 -0.000405 0.012691 -0.009578 0.000116 0 -0.011753 0 2650 
1604 1 -0.00951126 0.0484023 -0.0100198 0.000116 2.07902 -3.08605 -3.88124 2650 
3409 1 -0.008283 -0.002642 -0.009387 0.000656 0 -0.011753 0 2650 
2846 1 -0.006122 -0.002982 -0.009068 4.2e-05 0 -0.011753 0 2650 
2224 1 -0.004317 -0.002646 -0.008931 0.000423 0 -0.011753 0 2650 
1239 1 -0.00327576 -0.0029479 -0.0088422 0.000423 -0.0112942 -0.0224869 -0.0158758 2650 
1787 1 -0.012291 -0.00161 -0.008935 0.000423 0 -0.011753 0 2650 
756 1 -0.007322 -0.001631 -0.009147 0.000116 0 -0.011753 0 2650 
3875 1 -0.00627357 -0.0020843 -0.00870269 0.000423 -0.251518 -0.1231 0.018246 2650 
661 1 -0.00797525 -0.00118925 -0.0094075 0.000656 0.0055945 -0.0143672 0.00275546 2650 
811 1 -0.000732719 -0.00125022 -0.00873021 0.000423 -0.317633 -0.0992219 0.0180536 2650 
3393 1 -0.006109 -0.000370999 -0.008736 4.2e-05 0 -0.011753 0 2650 
1690 1 -0.004681 -0.000493999 -0.00917 0.000423 0 -0.011753 0 2650 
159 1 -0.005821 0.000241001 -0.009096 0.000423 0 -0.011753 0 2650 
193 1 -0.010056 0.001995 -0.009264 0.000116 0 -0.011753 0 2650 
3935 1 -0.006505 0.002212 -0.009315 0.000116 0 -0.011753 0 2650 
3450 1 -0.011877 0.002784 -0.008756 0.000423 0 -0.011753 0 2650 
1184 1 -0.011934 0.003036 -0.00927 0.000116 0 -0.011753 0 2650 
608 1 -0.01048 0.002554 -0.008875 0.000116 0 -0.011753 0 2650 
4013 1 -0.00554616 0.00256428 -0.00935139 0.000116 0.120685 0.326905 -0.117151 2650 
2299 1 -0.003792 0.002448 -0.009457 4.2e-05 0 -0.011753 0 2650 
1121 1 -0.002698 0.002666 -0.00928 0.000423 0 -0.011753 0 2650 
3219 1 -0.00136463 0.00263465 -0.00879673 0.000423 0.157702 -0.0561135 -0.0658825 2650 
2541 1 -0.006562 0.004293 -0.009245 0.000656 0 -0.011753 0 2650 
1381 1 -0.00269597 0.00482629 -0.00945618 0.000116 0.0814598 0.325994 -0.167727 2650 
1171 1 -0.008755 0.006184 -0.00943 0.000116 0 -0.011753 0 2650 
3558 1 -0.007141 0.005527 -0.00937 0.000423 0 -0.011753 0 2650 
1584 1 -0.005051 0.007078 -0.00882 0.000423 0 -0.011753 0 2650 
373 1 -0.01088 0.007406 -0.009322 0.000423 0 -0.011753 0 2650 
842 1 -0.010207 0.007709 -0.009055 0.000116 0 -0.011753 0 2650 
1567 1 -0.008425 0.007143 -0.008875 0.000423 0 -0.011753 0 2650 
2633 1 -0.005185 0.007659 -0.009252 4.2e-05 0 -0.011753 0 2650 
3984 1 -0.012135 0.007995 -0.009019 0.000423 0 -0.011753 0 2650 
949 1 -0.004033 0.00821 -0.009175 0.000116 0 -0.011753 0 2650 
4077 1 -0.012422 0.009231 -0.00892 0.000423 0 -0.011753 0 2650 
2649 1 -0.00472 0.009118 -0.008709 0.000656 0 -0.011753 0 2650 
368 1 -0.013572 0.00971 -0.008947 0.000423 0 -0.011753 0 2650 
595 1 -0.009604 0.009899 -0.009278 0.000423 0 -0.011753 0 2650 
3042 1 -0.012085 0.010986 -0.009039 0.000116 0 -0.011753 0 2650 
2678 1 -0.01021 0.010985 -0.009104 0.000423 0 -0.011753 0 2650 
4368 1 -0.004474 0.010291 -0.008808 0.000116 0 -0.011753 0 2650 
1021 1 -0.012788 0.012545 -0.008833 0.000423 0 -0.011753 0 2650 
796 1 -0.00925 0.012511 -0.009199 0.000423 0 -0.011753 0 2650 
2094 1 -0.006452 0.011879 -0.009074 0.000656 0 -0.011753 0 2650 
4179 1 -0.004782 0.012046 -0.009033 0.000423 0 -0.011753 0 2650 
1859 1 -0.011231 0.013358 -0.009139 4.2e-05 0 -0.011753 0 2650 
232 1 -0.010455 0.01335 -0.008807 0.000656 0 -0.011753 0 2650 
449 1 -0.002169 0.012768 -0.008811 0.000656 0 -0.011753 0 2650 
473 1 -0.006405 0.013699 -0.009211 0.000423 0 -0.011753 0 2650 
1521 1 -0.005494 0.013692 -0.009109 0.000116 0 -0.011753 0 2650 
3143 1 -0.00514165 -0.0162278 -0.00833652 0.000116 -0.767447 -2.07699 -1.5363 2650 
947 1 -0.013531 -0.003188 -0.00802 0.000116 0 -0.011753 0 2650 
1774 1 -0.001246 -0.002638 -0.00814 0.000423 0 -0.011753 0 2650 
2545 1 -0.012942 -0.002198 -0.007898 0.000423 0 -0.011753 0 2650 
4306 1 -0.009054 -0.001891 -0.00862 0.000423 0 -0.011753 0 2650 
3204 1 -0.0071155 -0.00209496 -0.00850305 0.000423 -0.336835 -0.0406499 0.0574925 2650 
1169 1 -0.007648 -0.00132 -0.008568 0.000116 0 -0.011753 0 2650 
2273 1 -0.013708 -0.000761999 -0.008112 0.000116 0 -0.011753 0 2650 
3482 1 -0.00291978 -0.000251332 -0.00818168 0.000116 0.00225549 -0.234656 -0.0429905 2650 
3283 1 -0.006893 8.5001e-05 -0.007981 4.2e-05 0 -0.011753 0 2650 
3599 1 -0.002399 0.001271 -0.008331 0.000116 0 -0.011753 0 2650 
786 1 -0.000492 0.001086 -0.008029 0.000423 0 -0.011753 0 2650 
799 1 -0.00679596 0.00283266 -0.0079731 0.000423 -0.497246 -0.168124 0.245392 2650 
4275 1 -0.012816 0.003897 -0.008558 0.000656 0 -0.011753 0 2650 
932 1 -0.010541 0.003224 -0.008145 0.000423 0 -0.011753 0 2650 
602 1 -0.00400429 0.00327326 -0.00842106 0.000423 -0.198395 -0.0449674 0.63879 2650 
2285 1 -0.009362 0.004422 -0.008376 0.000116 0 -0.011753 0 2650 
3011 1 -0.002993 0.004335 -0.008536 0.000423 0 -0.011753 0 2650 
3477 1 -0.012713 0.005038 -0.008303 0.000116 0 -0.011753 0 2650 
2385 1 -0.007736 0.005246 -0.008312 0.000116 0 -0.011753 0 2650 
503 1 -0.004804 0.004787 -0.007904 0.000116 0 -0.011753 0 2650 
1272 1 -0.002915 0.004814 -0.008051 0.000116 0 -0.011753 0 2650 
3221 1 -0.002059 0.005438 -0.008621 0.000423 0 -0.011753 0 2650 
675 1 -0.000745561 0.00527429 -0.00860127 0.000423 0.000674225 0.00272039 -0.00383892 2650 
3943 1 -0.014244 0.005988 -0.008682 4.2e-05 0 -0.011753 0 2650 
1237 1 -0.008774 0.005798 -0.008534 0.000423 0 -0.011753 0 2650 
3677 1 -0.003242 0.006274 -0.008032 0.000116 0 -0.011753 0 2650 
2604 1 -0.008994 0.006332 -0.008289 0.000116 0 -0.011753 0 2650 
1778 1 -0.003895 0.006329 -0.008346 0.000423 0 -0.011753 0 2650 
207 1 -0.002941 0.006788 -0.008481 0.000116 0 -0.011753 0 2650 
1251 1 -0.01357 0.007642 -0.008038 0.000423 0 -0.011753 0 2650 
246 1 -0.00496569 0.00766628 -0.00807887 0.000423 0.156919 0.0506353 -0.0219551 2650 
2789 1 -0.00401 0.007808 -0.008376 0.000423 0 -0.011753 0 2650 
4357 1 -0.014797 0.008038 -0.007983 0.000116 0 -0.011753 0 2650 
429 1 -0.002263 0.008146 -0.008493 0.000116 0 -0.011753 0 2650 