ITEM: TIMESTEP
6478800
ITEM: NUMBER OF ATOMS
4365
ITEM: BOX BOUNDS ff ff ff
-0.15 0.15
-0.15 0.06
-0.15 0.15
ITEM: ATOMS id type x y z radius vx vy vz density 
4353 1 -0.10334 -0.0235818 0.0903269 0.000116 -3.647 -0.323375 10.3756 2650 
3140 1 -0.0129622 -0.0468665 -0.0676532 0.000116 -5.60494 -0.518712 1.06431 2650 
983 1 -0.0425714 -0.0624136 -0.0542491 4.2e-05 -8.61275 -0.0105606 6.75912 2650 
2708 1 -0.0528256 -0.0565424 -0.0442089 0.000116 -2.73016 0.554855 3.22916 2650 
3845 1 -0.0521744 -0.0453722 -0.0441467 0.000656 -4.69464 0.0816529 5.5803 2650 
1471 1 -0.0622046 -0.0491295 -0.028815 0.000423 -2.32225 -0.52668 4.70104 2650 
3779 1 -0.0635306 -0.0472863 -0.0257984 0.000423 -1.72635 0.178862 4.51364 2650 
1256 1 -0.065138 -0.0520584 -0.0214482 0.000423 -1.33412 -0.802872 3.97351 2650 
2201 1 -0.0651244 -0.0458186 -0.0207335 0.000656 -1.90172 0.113575 5.9308 2650 
1856 1 -0.0677972 -0.056418 0.0121892 0.000116 0.857367 -0.199989 4.82648 2650 
3957 1 -0.0659184 -0.0458114 0.0180541 0.000656 1.67773 -0.0400651 6.00861 2650 
482 1 -0.0611357 -0.0585068 0.0310702 0.000423 2.61583 -0.0740011 5.16002 2650 
2487 1 -0.0539815 -0.0462703 0.0427901 0.000116 3.38394 0.210775 4.23359 2650 
4037 1 -0.0289702 -0.0532403 0.0624965 0.000116 5.14276 -0.51461 2.38919 2650 
3266 1 -0.00128635 -0.0621166 0.0688691 0.000116 3.2179 1.50868 0.0135443 2650 
2703 1 -0.00332608 -0.0574549 0.0688038 0.000116 5.69807 -0.0312713 0.290467 2650 
2087 1 -0.00412045 -0.0556116 0.068835 4.2e-05 4.98382 -0.684201 0.291841 2650 
4025 1 -0.00268777 -0.0397118 -0.0688312 0.000116 -5.26645 -0.996811 0.229342 2650 
2606 1 -0.000334422 -0.0268458 -0.0688836 0.000116 -6.90932 -0.284739 0.0297042 2650 
1934 1 -0.00125981 -0.017142 -0.0688723 0.000116 -3.62746 -0.159376 0.0493252 2650 
1598 1 -0.00491793 -0.00838317 -0.0687085 0.000116 -5.84814 0.490877 0.441023 2650 
4260 1 -0.000804399 -0.00366875 -0.0688791 0.000116 -6.23703 -0.151121 0.0710431 2650 
2578 1 -0.00236949 -0.035951 -0.0685373 0.000423 -5.33205 0.043203 0.172855 2650 
19 1 -0.00409475 -0.0312693 -0.0684561 0.000423 -5.26637 -0.0132524 0.286053 2650 
152 1 -0.00331414 -0.0271057 -0.0684983 0.000423 -6.00835 -0.148381 0.296971 2650 
311 1 -0.0110553 -0.0258659 -0.0679912 0.000116 -5.12117 0.121687 0.777307 2650 
1051 1 -0.00745947 -0.0233409 -0.068479 0.000116 -5.20839 0.975093 0.55986 2650 
4312 1 -0.0049055 -0.0215745 -0.0684025 0.000423 -5.74055 0.193647 0.418364 2650 
2247 1 -0.00228796 -0.0196232 -0.0685396 0.000423 -5.966 0.204887 0.203712 2650 
3390 1 -0.00564868 -0.0174525 -0.0686519 0.000116 -3.78397 -0.188041 0.340719 2650 
2803 1 -0.0065627 -0.0139421 -0.0685705 0.000116 -5.16151 -0.055923 0.498661 2650 
2711 1 -0.009493 -0.00890544 -0.0682264 0.000116 -4.49147 0.352429 0.621527 2650 
106 1 -0.0103067 -0.00796184 -0.0681803 4.2e-05 -3.42008 0.239856 0.451901 2650 
2269 1 -0.0102332 -0.00586158 -0.0681186 0.000116 -3.25857 -0.121064 0.406099 2650 
3034 1 -0.00640949 -0.00521989 -0.068585 0.000116 -5.42554 -0.250767 0.499169 2650 
2212 1 -0.0101389 -0.0268589 -0.0675899 0.000656 -5.69705 0.083818 0.829511 2650 
4319 1 -0.0105983 -0.0251435 -0.0677524 0.000423 -5.67832 0.0703651 0.893636 2650 
1249 1 -0.0125635 -0.0221105 -0.0674175 0.000423 -5.38209 0.162706 1.03004 2650 
334 1 -0.0103446 -0.0193579 -0.067557 0.000656 -4.18812 -0.343438 0.65909 2650 
2064 1 -0.0140226 -0.0185212 -0.0674406 0.000116 -4.19729 -0.497934 0.957768 2650 
4021 1 -0.0139607 -0.0163693 -0.0674379 0.000116 -7.37037 0.599186 1.55896 2650 
3724 1 -0.0121315 -0.0160635 -0.0678733 4.2e-05 -3.67744 0.354896 0.524839 2650 
2816 1 -0.0155228 -0.0127501 -0.0671111 0.000116 -3.13483 -0.357556 0.642227 2650 
1208 1 -0.0130137 -0.00170013 -0.0677169 4.2e-05 -5.50613 -0.207461 1.04469 2650 
1239 1 -0.0150641 -0.0448778 -0.0669026 0.000423 -6.23606 -0.135242 1.38905 2650 
343 1 -0.0153159 -0.0389453 -0.0668434 0.000423 -5.6989 0.116466 1.29211 2650 
2865 1 -0.0144388 -0.0249178 -0.0667917 0.000656 -5.78607 0.0790132 1.37014 2650 
1865 1 -0.0184468 -0.0202242 -0.066445 4.2e-05 -7.24659 0.733932 2.00939 2650 
1380 1 -0.0183229 -0.0197738 -0.0664023 0.000116 -4.22816 -0.393701 1.17724 2650 
399 1 -0.0159501 -0.017623 -0.0670112 0.000116 -4.77516 -0.334326 1.11961 2650 
3536 1 -0.01574 -0.0138471 -0.066742 0.000423 -4.89351 -0.107294 1.1217 2650 
392 1 -0.0159949 -0.0100523 -0.0669896 0.000116 -3.4885 -0.181974 0.828132 2650 
1792 1 -0.0153891 -0.00762092 -0.0668218 0.000423 -4.87031 -0.0115499 1.07121 2650 
2396 1 -0.0169026 -0.000405274 -0.0667777 0.000116 -4.41954 -0.0713467 1.12176 2650 
51 1 -0.0202991 -0.0412751 -0.0655057 0.000423 -5.50398 -0.313435 1.69208 2650 
1996 1 -0.0201686 -0.0321755 -0.065543 0.000423 -5.8734 0.450314 1.81566 2650 
2515 1 -0.0205749 -0.024835 -0.0657386 0.000116 -3.95751 -0.0936383 1.23307 2650 
4017 1 -0.0190278 -0.00128084 -0.0662036 0.000116 -4.17577 -0.187886 1.18564 2650 
2465 1 -0.0211391 -0.0292019 -0.0652375 0.000423 -4.77176 -0.325712 1.57327 2650 
747 1 -0.0234894 -0.0264189 -0.0647552 0.000116 -3.80461 0.711056 1.36013 2650 
335 1 -0.021679 -0.025846 -0.0648172 0.000656 -4.3534 -0.247595 1.45344 2650 
3357 1 -0.0217008 -0.0149825 -0.0653764 0.000116 -6.50388 0.358887 2.15147 2650 
223 1 -0.0217386 -0.00323941 -0.0647962 0.000656 -6.98079 0.147927 2.3211 2650 
3089 1 -0.0235342 -0.0342695 -0.064414 0.000423 -5.90948 0.1121 2.17569 2650 
1463 1 -0.0243433 -0.0337241 -0.0641126 0.000423 -4.6073 0.135632 1.73803 2650 
2237 1 -0.02291 -0.0328703 -0.0646386 0.000423 -5.19413 -0.0765607 1.83676 2650 
3378 1 -0.0254638 -0.0193531 -0.0640045 0.000116 -7.01415 -0.842035 2.80739 2650 
1058 1 -0.0262611 -0.0148433 -0.063682 0.000116 -3.35115 -0.361251 1.36162 2650 
2790 1 -0.0286337 -0.0251052 -0.0623138 0.000423 -5.42631 0.235421 2.46402 2650 
2395 1 -0.028907 -0.0240843 -0.0625252 0.000116 -5.37946 0.416562 2.48582 2650 
3375 1 -0.0293074 -0.0102645 -0.0623388 0.000116 -3.72999 0.249858 1.73273 2650 
4308 1 -0.0294652 -0.0296686 -0.0619252 0.000423 -4.96629 0.335729 2.3545 2650 
355 1 -0.0299748 -0.0289487 -0.0616804 0.000423 -4.92438 -0.0727433 2.39158 2650 
3964 1 -0.02911 -0.0223947 -0.062093 0.000423 -5.53702 -0.0129128 2.57771 2650 
791 1 -0.0300613 -0.0101896 -0.0616381 0.000423 -3.64198 -0.136075 1.77728 2650 
1392 1 -0.0295173 -0.000450423 -0.0622395 0.000116 -5.47572 -0.0967768 2.61719 2650 
4342 1 -0.0311267 -0.0380306 -0.0614502 0.000116 -5.50378 -0.381171 2.79613 2650 
3431 1 -0.0310181 -0.0290676 -0.0611622 0.000423 -4.82546 -0.154598 2.44406 2650 
817 1 -0.0310328 -0.0245634 -0.0611542 0.000423 -5.949 -0.324629 3.0134 2650 
4150 1 -0.0323534 -0.0104147 -0.0608131 0.000116 -3.82986 0.247303 2.02868 2650 
844 1 -0.0337431 -0.0242333 -0.0600533 0.000116 -6.15431 -0.293178 3.449 2650 
3040 1 -0.0299918 -0.0210661 -0.0602132 0.000116 -6.74828 -0.330255 4.21864 2650 
3516 1 -0.0336418 -0.0351367 -0.0594925 0.000656 -5.508 0.192102 3.0934 2650 
1816 1 -0.0346319 -0.0264945 -0.059545 0.000116 -3.89674 0.0938663 2.27562 2650 
3069 1 -0.0343036 -0.0171942 -0.0598113 4.2e-05 -4.41142 0.291131 2.49188 2650 
1838 1 -0.0344481 -0.0118999 -0.0596276 0.000116 -3.02675 -0.210001 1.61408 2650 
3090 1 -0.0353543 -0.0325816 -0.0587612 0.000423 -4.01006 -0.816683 2.42365 2650 
2768 1 -0.0355594 -0.0148467 -0.0586187 0.000423 -5.01804 0.253187 3.06994 2650 
3691 1 -0.0359917 -0.00410544 -0.0587245 0.000116 -4.08818 0.226069 2.53279 2650 
3399 1 -0.0375699 -0.0268394 -0.0578249 4.2e-05 -5.72201 1.17091 3.70618 2650 
1499 1 -0.0376578 -0.0182814 -0.057678 0.000116 -4.70238 0.417196 3.0663 2650 
2559 1 -0.0363281 -0.0147486 -0.058155 0.000423 -4.51434 -0.217624 2.92772 2650 
2538 1 -0.0355962 -0.00723426 -0.0582996 0.000656 -3.24251 -0.0764313 2.03584 2650 
306 1 -0.0367617 -0.00501207 -0.0582443 0.000116 -6.85682 -0.280576 4.38931 2650 
239 1 -0.037553 -0.0282402 -0.0573822 0.000423 -4.67196 0.221973 3.05922 2650 
1825 1 -0.0383207 -0.022799 -0.0572409 0.000116 -4.00225 0.873886 2.6654 2650 
1177 1 -0.0388674 -0.00578425 -0.0568653 0.000116 -3.26811 0.152117 2.37027 2650 
2514 1 -0.0380498 -0.00597158 -0.057411 0.000116 -6.54977 -0.8652 4.32451 2650 
169 1 -0.0382543 -0.00457814 -0.0572827 0.000116 -4.16242 0.727877 2.78263 2650 
2210 1 -0.0382883 -0.0352784 -0.0566158 0.000656 -3.81553 -0.206145 2.53766 2650 
3444 1 -0.0395468 -0.0309522 -0.0560269 0.000423 -3.85624 -0.00651807 2.73028 2650 
4035 1 -0.0402358 -0.0257773 -0.0559116 0.000116 -3.91913 0.387453 2.81486 2650 
3522 1 -0.0405247 -0.0237102 -0.0553235 0.000423 -5.00268 -0.112671 3.63836 2650 
577 1 -0.0406906 -0.0228884 -0.0552018 0.000423 -4.73425 -0.0197015 3.4916 2650 
2480 1 -0.0411947 -0.0190327 -0.0552087 0.000116 -3.69586 -0.103046 2.77464 2650 
1585 1 -0.0403345 -0.0180844 -0.0554614 0.000423 -3.76761 -0.0645759 2.70464 2650 
1410 1 -0.0412192 -0.0175474 -0.0551892 0.000116 -4.11962 -0.239186 3.07234 2650 
2042 1 -0.0428993 -0.0291731 -0.0538956 0.000116 -2.64276 -1.13479 2.06497 2650 
1787 1 -0.042763 -0.0169356 -0.0536121 0.000423 -4.49815 -0.199486 3.57351 2650 
2242 1 -0.0422884 -0.0154537 -0.0539878 0.000423 -4.59425 0.236973 3.58065 2650 
3817 1 -0.0431869 -0.00700367 -0.053665 0.000116 -4.47323 0.266324 3.61884 2650 
2169 1 -0.0441702 -0.0246769 -0.0528576 0.000116 -3.19658 -0.448453 2.6773 2650 
4320 1 -0.0430812 -0.0239037 -0.0533558 0.000423 -4.46835 0.23919 3.5885 2650 
862 1 -0.0439457 -0.0190631 -0.0530447 0.000116 -3.02339 0.262427 2.5196 2650 
849 1 -0.0441082 -0.000588569 -0.0529099 0.000116 -3.39043 -0.0614475 2.85063 2650 
1568 1 -0.0439049 -0.041156 -0.0526819 0.000423 -3.96878 -0.695156 3.36254 2650 
1638 1 -0.044957 -0.0374298 -0.0521909 0.000116 -4.31365 -0.378008 3.73081 2650 
2626 1 -0.0450048 -0.0307228 -0.052149 0.000116 -3.36821 0.550716 2.86014 2650 
1990 1 -0.0441104 -0.0262337 -0.052206 0.000656 -4.81684 -0.132251 4.02595 2650 
921 1 -0.0438222 -0.0143179 -0.0527504 0.000423 -4.45834 0.0237069 3.71534 2650 
1958 1 -0.0458019 -0.0207495 -0.0514511 0.000116 -4.01148 -0.583625 3.56298 2650 
2340 1 -0.0449448 -0.0209954 -0.0517968 0.000423 -4.32375 0.071539 3.74981 2650 
4056 1 -0.0455329 -0.0230045 -0.0509677 0.000656 -4.31932 0.0942994 3.84931 2650 
2010 1 -0.0458999 -0.0197907 -0.050953 0.000423 -4.50645 0.0663902 4.07244 2650 
2705 1 -0.0463611 -0.0191595 -0.0509474 0.000116 -4.47115 0.4265 4.05016 2650 
353 1 -0.0464967 -0.025492 -0.050407 0.000423 -4.07837 0.16664 3.86322 2650 
649 1 -0.0470963 -0.0236398 -0.0502667 0.000116 -5.64558 0.176249 5.28684 2650 
4311 1 -0.0466186 -0.0137422 -0.0502954 0.000423 -3.94596 0.0601396 3.68381 2650 
3783 1 -0.0457567 -0.00918076 -0.0497934 0.000423 -1.40399 -0.611542 2.93741 2650 
3000 1 -0.0477212 -0.0433573 -0.0492504 0.000423 -3.99178 -0.781564 3.87691 2650 
2921 1 -0.0477859 -0.0189747 -0.0496137 0.000116 -4.0337 0.679307 3.87575 2650 
3329 1 -0.0476982 -0.0182694 -0.0492727 0.000423 -5.36027 0.360956 5.20099 2650 
3936 1 -0.0488059 -0.0156004 -0.0487153 4.2e-05 -2.50197 -0.161388 2.5234 2650 
1174 1 -0.049021 -0.0139566 -0.0483935 0.000116 -2.62875 -0.121445 2.64583 2650 
3330 1 -0.0501602 -0.0274596 -0.0467204 0.000423 -3.9394 0.00227108 4.26716 2650 
2681 1 -0.0503358 -0.0155818 -0.0465747 0.000423 -3.55611 0.188111 3.80124 2650 
1364 1 -0.0498645 -0.0100556 -0.0470799 0.000423 -2.49461 -0.0832921 2.65696 2650 
2291 1 -0.0512487 -0.0104115 -0.0460277 0.000116 -3.68087 0.347855 4.11786 2650 
3204 1 -0.0514014 -0.0198215 -0.0453964 0.000423 -3.96696 -0.00304929 4.48445 2650 
1377 1 -0.0517917 -0.0186856 -0.0454157 0.000116 -3.8555 0.579257 4.40784 2650 
2832 1 -0.051911 -0.00800573 -0.0452797 0.000116 -3.40708 0.500915 3.88428 2650 
3741 1 -0.052143 -0.0182356 -0.0445432 0.000423 -3.71526 -0.146996 4.34843 2650 
2192 1 -0.0527067 -0.00917438 -0.0444654 4.2e-05 -5.79396 -0.247903 6.85969 2650 
4288 1 -0.0527378 -0.0412253 -0.0438372 0.000423 -3.5517 0.0554439 4.26866 2650 
2147 1 -0.0534326 -0.0235402 -0.0434735 0.000116 -3.77456 -0.452927 4.63685 2650 
208 1 -0.0533384 -0.0212934 -0.0435889 0.000116 -3.16972 -0.498655 3.86303 2650 
2371 1 -0.0529519 -0.020129 -0.0440576 0.000116 -3.55131 -0.725933 4.26546 2650 
4297 1 -0.0525835 -0.0188043 -0.0440208 0.000423 -3.65711 -0.0892318 4.40064 2650 
3348 1 -0.0533672 -0.00302819 -0.0435541 0.000116 -3.37283 -0.109449 4.14121 2650 
2588 1 -0.0537346 -0.0120266 -0.0430996 0.000116 -2.78181 0.114889 3.45265 2650 
1960 1 -0.0543393 -0.0242858 -0.0423346 0.000116 -3.91411 -0.60591 5.03155 2650 
365 1 -0.0545404 -0.0113432 -0.0415728 0.000423 -3.24149 -0.180414 4.22915 2650 
4074 1 -0.0549672 -0.00427351 -0.041007 0.000423 -2.53975 0.0183501 3.45106 2650 
1050 1 -0.0564873 -0.0126756 -0.0394238 0.000116 -4.32977 1.1776 6.19561 2650 
658 1 -0.0560912 -0.00208442 -0.0401117 4.2e-05 -3.59705 1.49554 5.01068 2650 
2246 1 -0.0564906 -0.0126876 -0.0388821 0.000423 -3.22264 0.225688 4.67374 2650 
4133 1 -0.0571237 -0.0372186 -0.0384955 0.000116 -2.88773 -0.321816 4.27205 2650 
981 1 -0.0578556 -0.0367263 -0.0375222 4.2e-05 -1.8146 0.237085 2.83267 2650 
1202 1 -0.0580544 -0.00676425 -0.0372148 4.2e-05 -2.45378 0.0313388 3.81904 2650 
2413 1 -0.0577624 -0.00485079 -0.0372537 4.2e-05 -1.52004 -0.146984 3.21224 2650 
3519 1 -0.0575817 -0.0392351 -0.0368174 0.000656 -3.33336 -0.0384752 5.22044 2650 
1326 1 -0.0577627 -0.0359438 -0.0365351 0.000656 -2.62881 -0.243524 4.06607 2650 
1317 1 -0.0582161 -0.0075557 -0.0369613 4.2e-05 -1.78798 -0.145673 2.83384 2650 
3863 1 -0.0583313 -0.0394104 -0.0360614 0.000423 -3.27933 0.0564376 5.29732 2650 
2245 1 -0.0586322 -0.0324428 -0.0355703 0.000423 -2.80064 0.120179 4.58963 2650 
1863 1 -0.0590839 -0.0141398 -0.0355558 4.2e-05 -1.76761 -0.203462 2.94381 2650 
2148 1 -0.059252 -0.0369565 -0.0351307 0.000116 -2.22306 0.350239 3.7357 2650 
4128 1 -0.0594455 -0.0219858 -0.0348025 0.000116 -2.66448 -0.00241771 4.56107 2650 
753 1 -0.0599433 -0.0413975 -0.0339402 0.000116 -2.45498 -0.323088 4.31803 2650 
4147 1 -0.0608664 -0.024023 -0.0322517 0.000116 -3.12126 -0.129076 5.8864 2650 
1130 1 -0.0612437 -0.00664016 -0.03084 0.000423 -2.10072 -0.126144 3.98295 2650 
164 1 -0.0613912 -0.0238195 -0.0305595 0.000423 -2.45777 0.378206 4.85637 2650 
2118 1 -0.0615795 -0.0218931 -0.0301799 0.000423 -2.60711 -0.295926 5.36221 2650 
250 1 -0.061793 -0.0239532 -0.0297424 0.000423 -2.35573 0.415329 4.9422 2650 
1323 1 -0.0616306 -0.0203154 -0.0295466 0.000656 -2.60001 0.0476819 5.38339 2650 
15 1 -0.0620183 -0.0156238 -0.0292643 0.000423 -1.64899 -0.416739 3.2975 2650 
1752 1 -0.062362 -0.0073084 -0.0294118 4.2e-05 -1.23485 -0.155831 3.0758 2650 
1944 1 -0.0488993 -0.00468457 -0.0297185 0.000116 -7.6471 -0.130585 -4.64752 2650 
1030 1 -0.0120292 -0.0119445 -0.0268947 0.000423 -1.60848 -1.24795 -3.47903 2650 
2938 1 -0.0110099 -0.00472738 -0.0259069 0.000116 -1.71197 -0.144008 -3.98481 2650 
3260 1 -0.0646954 -0.0324735 -0.0236532 0.000116 -1.71643 -0.547815 4.6976 2650 
1275 1 -0.0644588 -0.0282348 -0.0242908 0.000116 -1.75859 0.30267 4.65059 2650 
338 1 -0.0641164 -0.0231012 -0.0236708 0.000656 -2.07108 0.290263 5.53349 2650 
3351 1 -0.0646958 -0.0119088 -0.0236531 0.000116 -1.16929 -0.225322 3.17817 2650 
2714 1 -0.0622823 -0.0161538 -0.0234367 0.000116 -0.725769 -1.1032 3.40896 2650 
330 1 -0.0178573 -0.00361518 -0.0223437 4.2e-05 -2.42419 -0.0637842 -2.96936 2650 
4016 1 -0.0654634 -0.0161539 -0.0214369 0.000116 -2.44286 0.197566 7.46725 2650 
2274 1 -0.0655309 -0.0413289 -0.0212294 0.000116 -1.24071 0.645499 3.78885 2650 
1278 1 -0.0656174 -0.0210153 -0.0209602 0.000116 -1.79436 0.306371 5.60985 2650 
1500 1 -0.0658293 -0.0139221 -0.0202868 0.000116 -1.03785 0.236938 3.4094 2650 
588 1 -0.0657216 -0.016383 -0.0195865 0.000423 -1.30689 -0.307523 4.38083 2650 
3725 1 -0.0662491 -0.0157711 -0.0191372 4.2e-05 -1.35528 0.18125 4.69029 2650 
2421 1 -0.0657591 -0.0230918 -0.018627 0.000656 -1.6998 0.0620236 5.903 2650 
711 1 -0.0201733 -0.0040568 -0.0188052 0.000423 -3.08829 -0.0969403 -2.87776 2650 
2501 1 -0.066581 -0.0147879 -0.0176635 0.000116 -1.17042 -0.210065 4.42774 2650 
2779 1 -0.0664898 -0.0197732 -0.0167917 0.000423 -1.38684 0.00643421 5.3815 2650 
606 1 -0.000183 0.00291735 -0.016592 0.000116 0 -0.011753 0 2650 
188 1 -0.00100722 0.0102341 -0.0167354 0.000116 -0.0148612 0.0228045 0.00418427 2650 
2713 1 -0.00075683 0.0106814 -0.0166781 0.000116 0.00037122 0.035974 0.00535071 2650 
4231 1 -0.000324444 0.0168889 -0.0166095 0.000116 -0.0134934 0.0153003 0.0304581 2650 
1596 1 -0.0400487 -0.00943666 -0.0165794 0.000116 -5.79602 -0.601089 -2.41583 2650 
545 1 -0.00217315 -0.000312615 -0.0158018 4.2e-05 0.0164356 0.0574887 0.091312 2650 
736 1 -0.00416031 0.000716652 -0.0162703 0.000116 -0.0307431 -0.0170391 0.0144389 2650 
30 1 -0.000249693 0.000792923 -0.0164452 0.000423 -0.016733 -0.0244017 -0.0123914 2650 
150 1 -0.00436607 0.00191492 -0.0158682 0.000423 -0.0551283 0.0175519 0.0264808 2650 
1679 1 -0.00363764 0.00274875 -0.0161371 0.000423 -0.00531599 0.0154477 0.00427337 2650 
2013 1 -0.00278647 0.00279297 -0.0160838 0.000423 -0.00154235 0.00221798 0.00156406 2650 
2283 1 -0.00281691 0.00363417 -0.0160443 0.000116 -0.0318858 -0.01081 -0.0228231 2650 
2793 1 -0.00178559 0.00333254 -0.0158195 0.000423 0.0182843 0.0982975 0.0184189 2650 
2301 1 -0.004222 0.00469035 -0.016305 4.2e-05 0 -0.011753 0 2650 
3121 1 -0.00260236 0.00509357 -0.0162017 0.000423 0.0292552 0.00121421 5.81941e-05 2650 
978 1 -0.00464126 0.00675507 -0.0160111 0.000116 0.015313 -0.00383775 -0.0151954 2650 
3934 1 -0.001977 0.00767935 -0.016218 0.000116 0 -0.011753 0 2650 
1617 1 -0.00291279 0.00983399 -0.0161371 0.000116 0.0304013 0.00375314 0.0183235 2650 
2924 1 -0.00126629 0.011819 -0.0162416 0.000116 -0.059039 0.0353164 0.00422158 2650 
1173 1 -0.00286418 0.0405445 -0.0164209 0.000116 -0.136556 0.342033 -0.0293067 2650 
4245 1 -0.00502359 0.0442054 -0.0158756 0.000116 -0.108278 0.145073 0.0575558 2650 
1357 1 -0.00132178 0.056248 -0.0163753 0.000423 0.0707047 -0.134764 -0.00396134 2650 
1022 1 -0.00326279 -0.00139331 -0.0156521 0.000423 0.00547055 0.0207929 0.0819064 2650 
1991 1 -0.0056204 0.000479443 -0.0150589 0.000656 -0.0197706 -0.00214867 0.00868857 2650 
3239 1 -0.00398511 0.00181384 -0.0154318 0.000116 -0.0248133 -0.00752354 0.0120924 2650 
676 1 -0.00307845 0.00197169 -0.0151647 0.000423 -0.0247905 0.00447638 0.0282863 2650 
3637 1 -0.0039992 0.00249364 -0.0153608 0.000423 -0.010908 0.0125472 -0.00602406 2650 
2399 1 -0.002418 0.00313135 -0.015541 0.000116 0 -0.011753 0 2650 
1388 1 -0.0017523 0.0052549 -0.0156041 0.000116 -0.039288 0.0021603 0.0169103 2650 
2438 1 -0.00560261 0.0067738 -0.0152447 0.000423 -0.00364828 0.010897 0.00465106 2650 
963 1 -0.00640337 0.0071208 -0.0154216 0.000116 -0.0190241 0.000952492 0.0269479 2650 
1219 1 -0.000380044 0.00755939 -0.0155654 0.000656 0.0133734 0.0239605 0.00857101 2650 
2969 1 -0.00158187 0.00854192 -0.0150919 0.000656 -0.00770999 0.0181957 -4.77754e-05 2650 
3830 1 -0.006879 0.00923135 -0.015411 4.2e-05 0 -0.011753 0 2650 
1620 1 -0.00204301 0.00911256 -0.0157717 0.000116 0.0529387 0.0514306 -0.00503745 2650 
86 1 -0.00217554 0.00907401 -0.0150505 0.000116 -0.0196067 0.0126222 0.000798653 2650 
3177 1 -0.000998283 0.00881054 -0.0154626 4.2e-05 0.00917698 -0.00185525 -0.00666376 2650 
1483 1 -0.000339035 0.00894357 -0.0154456 0.000423 -0.0010087 0.0213686 -0.00667363 2650 
1827 1 -0.00734767 0.00959739 -0.0151022 0.000116 -0.0386186 0.00754243 -0.0442276 2650 
233 1 -0.00477192 0.0096082 -0.0152369 0.000423 0.000342891 -0.00976437 -0.0328705 2650 
1228 1 -0.00148849 0.00974214 -0.0150021 0.000423 -0.0026547 0.0243513 0.000515369 2650 
938 1 -0.00089665 0.0101656 -0.0154233 0.000116 -0.0031777 -0.00896602 -0.000837518 2650 
371 1 -0.000442934 0.00986046 -0.0153942 0.000423 0.000789847 -0.00607499 -0.00615683 2650 
3644 1 -0.00101356 0.012539 -0.0155051 0.000423 -0.00432743 0.00711996 -0.0325914 2650 
1468 1 -0.00494517 -0.00332997 -0.0144249 0.000423 -0.094184 -0.0507651 -0.250054 2650 
3153 1 -0.000456879 -0.003341 -0.0144918 0.000116 0.042846 -0.0372227 -0.480704 2650 
2817 1 -0.00160848 -0.00248101 -0.0142913 0.000116 0.0100645 -0.056664 0.00630574 2650 
2827 1 -0.00548453 -0.00163999 -0.014219 0.000116 -0.0201753 -0.0226203 0.0017234 2650 
1053 1 -0.007469 -0.000710652 -0.014946 0.000116 0 -0.011753 0 2650 
509 1 -0.00746508 -0.00018311 -0.0148288 0.000116 -0.00521486 0.00944493 -0.0325939 2650 
623 1 -0.00651027 0.000386206 -0.0148902 0.000116 0.0135085 -0.00577665 0.0160157 2650 
2922 1 -0.00677569 0.00143664 -0.0142935 0.000116 -0.00925852 -0.000802711 0.00675368 2650 
220 1 -0.00359199 0.00272552 -0.014703 4.2e-05 0.00197382 0.00663681 0.00671825 2650 
1032 1 -0.00774179 0.0037353 -0.0142697 0.000423 0.0299121 -0.00820922 0.0127278 2650 
3587 1 -0.00635784 0.00362268 -0.0142139 0.000116 -0.0152422 -0.0151231 -0.00566973 2650 
2918 1 -0.00812818 0.00534313 -0.014553 0.000116 -0.0132236 0.0205789 -0.0380223 2650 
2313 1 -0.0046444 0.00622147 -0.0149415 0.000656 0.0121795 0.0249345 0.010824 2650 
3365 1 -0.002315 0.00555735 -0.014552 0.000116 0 -0.011753 0 2650 
581 1 -0.00561604 0.00847175 -0.0144239 0.000423 -0.000593495 -0.0101803 -0.00423903 2650 
289 1 -0.0019369 0.00972788 -0.0143291 0.000116 -0.0188061 -0.000940224 -0.0594549 2650 
3669 1 -0.000215606 0.0105136 -0.0147315 0.000423 0.00220454 -0.00743356 -0.00383523 2650 
3007 1 -0.00157164 0.0113045 -0.0144934 0.000423 -0.0135196 -0.00505473 -0.0280609 2650 
478 1 -0.00748304 0.0151002 -0.0144595 0.000423 0.0184535 0.00116934 0.020279 2650 
568 1 -0.0013676 0.0173592 -0.014743 0.000423 0.0646767 0.0324089 0.0265592 2650 
2643 1 -0.00114603 0.0266883 -0.0149495 0.000656 -0.0823633 0.0688822 0.0201377 2650 
352 1 -0.00586791 0.0427104 -0.0147022 0.000423 0.0275371 -0.163578 -0.159114 2650 
3256 1 -0.0675632 -0.0219408 -0.0133297 0.000116 -0.376767 -0.49661 5.18852 2650 
2172 1 -0.00683524 -0.00161223 -0.0140445 0.000116 0.0554355 0.00150652 -0.0523356 2650 
269 1 -3.45225e-05 -0.00115259 -0.0138072 0.000423 -0.0067037 -0.0325502 -0.00931701 2650 
2332 1 -0.00453401 -1.35066e-05 -0.0141151 0.000423 -0.0114447 -0.00779769 0.00753018 2650 
222 1 -0.00257211 -0.000402639 -0.0139478 0.000656 -0.0189906 -0.0240038 0.0410277 2650 
3733 1 -0.0069604 0.0014704 -0.0134395 0.000656 -0.023221 0.0173181 0.0154659 2650 
4165 1 -0.00517343 0.00344003 -0.0135761 0.000656 -6.3943e-05 -0.032131 0.00827285 2650 
2512 1 -0.00915403 0.00396297 -0.0136246 0.000116 0.018779 -0.0192413 0.00230208 2650 
1171 1 -0.00843785 0.00397795 -0.0140343 0.000116 0.0131753 -0.0110464 0.0150896 2650 
3950 1 -0.00712826 0.00627642 -0.0140061 0.000656 0.000588401 -0.011021 0.0254098 2650 
2322 1 -0.00852421 0.00702789 -0.0135379 0.000656 -0.010444 -0.0114293 0.00249654 2650 
1288 1 -0.002467 0.00686035 -0.014044 0.000116 0 -0.011753 0 2650 
4227 1 -0.000535076 0.00665927 -0.0135879 0.000116 -0.00921828 -0.0161692 0.0154311 2650 
3515 1 -0.00739472 0.00762845 -0.0140487 0.000656 -0.0123818 -0.00699382 0.00355907 2650 
1618 1 -0.00903385 0.00806325 -0.0141197 0.000116 -0.0374153 0.000761065 0.00796034 2650 
4190 1 -0.00853316 0.00858781 -0.0140943 0.000423 -0.0128313 0.00264634 -0.00103874 2650 
1769 1 -0.00675239 0.00866056 -0.0135291 0.000656 -0.0120334 -0.000961407 -0.0081542 2650 
2222 1 -0.000548173 0.00790859 -0.0141922 0.000423 -0.00549102 -0.00568171 -0.00117535 2650 
4257 1 -0.00803289 0.00917201 -0.0140018 0.000116 0.0101268 -0.0416798 0.0036163 2650 
1476 1 -0.0069608 0.00972811 -0.013435 0.000423 -0.00430855 0.00299287 4.96068e-07 2650 
1986 1 -0.00277494 0.0101099 -0.0135661 0.000656 0.00762539 0.0149956 0.0116892 2650 
1409 1 -0.00044 0.0106403 -0.013868 0.000116 0 -0.011753 0 2650 
959 1 -0.00944643 0.0143652 -0.0139153 0.000116 -0.0124197 0.0522228 0.0447896 2650 
142 1 -0.00550364 0.024102 -0.0141337 0.000423 -0.0600809 0.0373384 0.0570253 2650 
913 1 -0.00165992 0.0261267 -0.0139447 0.000423 -0.0558551 0.0664181 0.070885 2650 
4264 1 -0.0676654 -0.00988935 -0.0132935 4.2e-05 -0.844083 -0.071847 4.21162 2650 
2666 1 -0.00782778 -0.00184868 -0.0130441 0.000423 0.00506312 -0.0128769 -0.0752945 2650 
3551 1 -0.00678881 0.000367354 -0.0129175 0.000423 -0.015336 0.00523015 0.00637389 2650 
4126 1 -0.00531021 0.000306315 -0.0131806 0.000116 -0.0261531 0.0084042 0.00402279 2650 
2525 1 -0.004063 0.00108735 -0.013231 4.2e-05 0 -0.011753 0 2650 
2619 1 -0.005851 0.00190335 -0.012854 0.000116 0 -0.011753 0 2650 
3880 1 -0.010277 0.00281935 -0.012913 0.000423 0 -0.011753 0 2650 
2609 1 -0.00886 0.00262735 -0.013248 0.000116 0 -0.011753 0 2650 
3917 1 -0.003984 0.00338835 -0.012703 0.000116 0 -0.011753 0 2650 
2059 1 -0.003583 0.00359735 -0.012756 0.000116 0 -0.011753 0 2650 
234 1 -0.000340659 0.00345552 -0.0130767 0.000423 0.0351287 -0.0167305 0.0264562 2650 
2912 1 -0.00558554 0.00508186 -0.0132198 0.000116 0.00196064 0.0151142 0.00117299 2650 
3446 1 -0.00216314 0.00540089 -0.0127207 0.000423 0.014297 -0.016402 -0.00312272 2650 
4078 1 -0.00955955 0.00603484 -0.0126783 0.000423 -0.0196946 -0.00953845 0.00130892 2650 
104 1 -0.00313048 0.00621739 -0.0129128 4.2e-05 -0.00674979 0.0150481 0.0116551 2650 
1427 1 -0.002948 0.00592835 -0.013376 4.2e-05 0 -0.011753 0 2650 
2913 1 -0.00805478 0.00632198 -0.0133998 0.000116 -0.0140945 -0.0228944 -0.00540615 2650 
450 1 -0.00615601 0.00654265 -0.0130474 0.000656 0.0112424 0.0469319 0.00733295 2650 
2344 1 -0.000806765 0.0067976 -0.0126777 0.000423 0.00597873 -0.023338 -0.0226217 2650 
3259 1 -0.00894268 0.00737115 -0.012888 0.000116 -0.0089878 -0.00810535 0.00538998 2650 
1237 1 -0.00973918 0.00822365 -0.0133222 0.000423 0.0146777 0.0141302 -0.00833191 2650 
1795 1 -0.00873032 0.00793764 -0.0129829 0.000423 -0.00370069 -0.00801652 0.00216388 2650 
1250 1 -0.00810286 0.00834352 -0.0133946 0.000423 -0.00397097 -0.0161914 -0.00798876 2650 
205 1 -0.000744 0.00864435 -0.01334 0.000116 0 -0.011753 0 2650 
2483 1 -0.0087121 0.00901529 -0.0129462 0.000116 0.0222317 -0.00887276 -0.000700143 2650 
508 1 -0.0102084 0.00956949 -0.0131411 0.000116 -0.0281885 0.0711476 0.0146726 2650 
1775 1 -0.00822996 0.0114124 -0.0130529 0.000423 -7.29146e-05 -0.011186 -0.000346901 2650 
949 1 -0.00697237 0.0117186 -0.0129095 0.000116 -0.0176518 0.0277962 -0.00593252 2650 
3106 1 -0.0086425 0.0126001 -0.0127205 0.000423 -0.042507 0.0242048 -0.0146805 2650 
3632 1 -0.0101313 0.0128052 -0.0131141 0.000423 -0.0216519 0.000467483 0.0139725 2650 
1143 1 -0.000609019 0.0147953 -0.0127069 0.000423 0.0070315 0.0110531 -0.00616027 2650 
1763 1 -0.001143 -0.00222665 -0.012442 0.000656 0 -0.011753 0 2650 
2468 1 -0.00469494 -0.00151801 -0.0121252 0.000423 -0.0504222 0.0211365 0.000191011 2650 
3191 1 -0.00767812 -0.000247454 -0.0125798 0.000656 -0.0197381 0.00193499 -0.0014393 2650 
1422 1 -0.003881 -0.000380652 -0.012349 4.2e-05 0 -0.011753 0 2650 
1799 1 -0.00322869 0.000425252 -0.0120556 0.000423 7.10678e-05 -0.0118308 4.63239e-05 2650 
3956 1 -0.00905648 0.00134251 -0.0123183 0.000656 -0.000640959 -0.0104529 -0.000368355 2650 
541 1 -0.00667633 0.000952214 -0.0124572 4.2e-05 -0.0143735 0.00954058 0.00936495 2650 
3389 1 -0.010415 0.00188535 -0.012026 0.000116 0 -0.011753 0 2650 
3477 1 -0.00777829 0.002285 -0.0121947 0.000116 0.0616358 -0.0139442 -0.0219299 2650 
3201 1 -0.0064446 0.00195576 -0.0121075 0.000423 -0.00608722 0.0216696 0.0089772 2650 
3826 1 -0.009208 0.00378035 -0.012552 0.000116 0 -0.011753 0 2650 
3645 1 -0.00671897 0.00321755 -0.0121399 0.000423 -0.0357151 -0.0039173 0.0164321 2650 
411 1 -0.0106731 0.00436514 -0.0120926 0.000116 -0.00787832 -0.00657823 -8.20909e-05 2650 
2596 1 -0.0104701 0.00410096 -0.0119538 0.000116 -0.0442582 -0.0431064 0.0384975 2650 
3316 1 -0.00903932 0.00445957 -0.012473 0.000423 -0.00545668 -0.0184265 -0.00877661 2650 
1192 1 -0.00551979 0.00404854 -0.0125241 0.000116 -0.0160738 0.0171838 -0.0228619 2650 
708 1 -0.00258152 0.00428292 -0.0123009 0.000423 0.0112279 -0.00894022 0.00239788 2650 
2194 1 -0.0021534 0.00468611 -0.0124096 4.2e-05 0.00491046 0.00111596 0.00228026 2650 
3221 1 -0.00901615 0.00523778 -0.0118922 0.000423 -0.032904 0.00662316 -0.0103197 2650 
1261 1 -0.00745313 0.00488736 -0.0124751 0.000423 -0.000156549 -0.00211811 -0.00151993 2650 
1645 1 -0.00737125 0.00515082 -0.0120616 4.2e-05 0.0229874 0.010571 0.00467637 2650 
3322 1 -0.00345561 0.00486586 -0.0126039 0.000423 0.00110678 0.0140263 0.0123959 2650 
3362 1 -0.00265358 0.00503063 -0.0124114 0.000116 0.000350619 -0.00253681 -0.00404217 2650 
2957 1 -0.00110051 0.00505247 -0.0122668 4.2e-05 0.0205169 0.0248349 -0.000218849 2650 
3030 1 -0.001189 0.00604335 -0.012596 0.000116 0 -0.011753 0 2650 
445 1 -0.00967472 0.0072244 -0.0124593 0.000656 -0.00157651 -0.00352117 -0.00927671 2650 
4318 1 -0.00859327 0.00750242 -0.0122688 0.000423 0.000766946 -0.00630486 0.00294055 2650 
4296 1 -0.00453654 0.0074754 -0.0123393 0.000423 -0.0418082 0.0388893 0.0462647 2650 
2219 1 -0.00208078 0.00772322 -0.0118582 0.000423 0.0312068 0.0320194 0.0276961 2650 
4179 1 -0.00737213 0.00822348 -0.0124174 0.000423 -0.00767678 -0.0221048 -0.00852388 2650 
3173 1 -0.004958 0.00817235 -0.012321 4.2e-05 0 -0.011753 0 2650 
1495 1 -0.00484969 0.00805541 -0.0123907 0.000116 -0.0456305 0.0559494 0.0249272 2650 
3684 1 -0.00438297 0.0082386 -0.0124562 0.000116 -0.0162792 0.0652979 0.019863 2650 
1584 1 -0.00168959 0.0084537 -0.0120685 0.000423 0.00224582 0.0587754 0.0325083 2650 
2630 1 -0.001036 0.00838035 -0.012074 4.2e-05 0 -0.011753 0 2650 
4002 1 -0.000443 0.00820435 -0.01223 0.000116 0 -0.011753 0 2650 
3847 1 -0.00958903 0.00902968 -0.0126201 0.000656 0.00223772 0.0142639 -0.00523739 2650 
2798 1 -0.00776299 0.00898987 -0.0119741 0.000423 0.0168646 0.022512 -0.0112906 2650 
2453 1 -0.00609411 0.00906785 -0.0124304 0.000423 0.00783944 0.0181262 -0.00771338 2650 
2092 1 -0.00406523 0.00900112 -0.0122923 0.000656 -0.0436925 0.0013821 -0.0433895 2650 
2781 1 -0.00567142 0.0100791 -0.0122483 0.000423 -0.0147005 -0.0142306 -0.0211936 2650 
1423 1 -0.00145 0.00986035 -0.012526 4.2e-05 0 -0.011753 0 2650 