ITEM: TIMESTEP
8778774
ITEM: NUMBER OF ATOMS
4350
ITEM: BOX BOUNDS ff ff ff
-0.15 0.15
-0.15 0.06
-0.15 0.15
ITEM: ATOMS id type x y z radius vx vy vz density 
2177 1 -0.0459956 -0.0493746 -0.0512333 0.000116 -6.46474 -0.461328 5.80071 2650 
51 1 -0.0471116 -0.0496804 -0.0498314 0.000423 -4.68398 0.153581 4.66711 2650 
3079 1 -0.0518302 -0.047119 -0.0445528 0.000656 -4.91514 0.00999082 5.72325 2650 
1856 1 -0.0557827 -0.0546103 -0.0404147 0.000116 -3.04934 0.153694 4.24668 2650 
3069 1 -0.0560845 -0.0523276 -0.0401221 4.2e-05 -4.13218 -0.178553 5.78033 2650 
980 1 -0.0634487 -0.0466353 -0.0270053 4.2e-05 -2.58323 0.566165 6.0274 2650 
3219 1 -0.0641581 -0.0497839 -0.0242234 0.000423 -1.36295 -0.779568 3.71266 2650 
3570 1 -0.0663219 -0.0619808 -0.0178514 0.000116 -4.85763 0.0276385 7.23204 2650 
3391 1 -0.067483 -0.0541463 -0.0141849 4.2e-05 -1.245 0.295669 5.93052 2650 
3314 1 -0.0682112 -0.0459334 -0.00707424 0.000423 -0.624776 -0.011318 6.31416 2650 
844 1 -0.0685824 -0.0470975 -0.00642349 0.000116 -0.600186 0.331573 6.31486 2650 
691 1 -0.0683205 -0.0490947 -0.00584262 0.000423 -0.581202 -0.0966486 7.06224 2650 
3192 1 -0.0680842 -0.0458898 -0.00594375 0.000656 -0.535037 -0.0638868 6.34906 2650 
4288 1 -0.0685735 -0.0491909 0.000815541 0.000423 0.0837561 0.0596096 6.84722 2650 
2819 1 -0.0651166 -0.0506939 0.0224718 0.000116 2.23601 0.66415 6.47541 2650 
4376 1 -0.0622066 -0.0591531 0.0297422 4.2e-05 3.12388 0.676644 6.54086 2650 
3409 1 -0.0614153 -0.0499798 -0.0299779 0.000656 -3.24017 0.0244246 6.66838 2650 
2201 1 -0.0428347 -0.0499901 0.0532572 0.000656 5.82628 -0.0502745 4.64013 2650 
482 1 -0.0398734 -0.0570305 0.0557943 0.000423 5.40847 -0.0458876 3.86299 2650 
528 1 -0.0382116 -0.0530236 0.0573149 0.000116 6.08816 -1.5068 4.03449 2650 
739 1 -0.0374993 -0.0558998 0.0577827 0.000116 5.15532 -0.10064 3.34871 2650 
2857 1 -0.0261178 -0.0466752 0.063144 0.000656 6.52749 -0.215487 2.67716 2650 
3957 1 -0.00863088 -0.0534137 0.0677999 0.000656 7.346 0.0320589 0.899274 2650 
379 1 -0.0124116 -0.0478041 0.0674455 0.000423 6.22523 0.126062 1.13162 2650 
3834 1 -0.00305714 -0.0395854 -0.0688899 4.2e-05 -7.20287 0.34376 0.319132 2650 
4038 1 -0.00144753 -0.0291639 -0.0688683 0.000116 -6.98952 -0.87452 0.147406 2650 
311 1 -0.000913694 -0.023955 -0.0688775 0.000116 -5.59267 -0.496082 0.0734515 2650 
169 1 -0.00130526 -0.0234542 -0.0688715 0.000116 -5.62877 -0.312142 0.1274 2650 
2291 1 -0.00157642 -0.0200557 -0.0688657 0.000116 -6.23191 -0.393152 0.148114 2650 
1393 1 -0.00466147 -0.0171395 -0.068726 0.000116 -6.22721 0.49111 0.43113 2650 
1208 1 -0.00409579 -0.0136655 -0.0688362 4.2e-05 -5.77049 0.164718 0.359585 2650 
1094 1 -0.00269901 -0.010698 -0.0689052 4.2e-05 -3.54592 -0.179788 0.179462 2650 
1047 1 -0.000676364 -0.00798071 -0.0688804 0.000116 -4.76188 0.360634 0.031251 2650 
3759 1 -0.0061811 -0.0402244 -0.0682987 0.000423 -6.88106 -0.0395169 0.612162 2650 
3386 1 -0.0081643 -0.0386487 -0.0683981 0.000116 -6.86111 0.34392 0.834547 2650 
2139 1 -0.00101744 -0.0319263 -0.0685695 0.000423 -6.82463 -0.147118 0.10274 2650 
821 1 -0.00374949 -0.0313959 -0.0684756 0.000423 -6.75183 0.181936 0.355049 2650 
2102 1 -0.00551537 -0.0300701 -0.0681227 0.000656 -6.96752 -0.107335 0.557471 2650 
2131 1 -0.00927974 -0.0291225 -0.067948 0.000423 -6.41177 -0.0463947 0.902168 2650 
2560 1 -0.00211193 -0.028785 -0.0685456 0.000423 -6.81882 0.0774253 0.213922 2650 
3743 1 -0.00587658 -0.0256545 -0.0683262 0.000423 -6.97311 -0.0226082 0.581286 2650 
3652 1 -0.00230308 -0.0247816 -0.0685393 0.000423 -7.22789 -0.147746 0.249257 2650 
1572 1 -0.00923536 -0.0226425 -0.0679528 0.000423 -4.95519 -0.292091 0.661023 2650 
334 1 -0.00158965 -0.02132 -0.0683273 0.000656 -6.60478 -0.0884895 0.146271 2650 
3783 1 -0.000570237 -0.0206592 -0.0685761 0.000423 -6.63905 0.245098 0.0473388 2650 
4084 1 -0.00598744 -0.0204652 -0.0683166 0.000423 -7.12198 -0.202533 0.618158 2650 
3139 1 -0.00970189 -0.018822 -0.0681972 0.000116 -7.10762 0.931261 1.02836 2650 
733 1 -0.00709212 -0.0176652 -0.0685175 0.000116 -6.73179 0.521343 0.697259 2650 
917 1 -0.00535338 -0.0179539 -0.0683684 0.000423 -6.28364 0.158783 0.450767 2650 
158 1 -0.00249848 -0.0181514 -0.068532 0.000423 -6.17946 -0.356814 0.195776 2650 
1585 1 -0.00163813 -0.0179194 -0.0685584 0.000423 -6.40145 -0.117769 0.146452 2650 
1901 1 -0.000911185 -0.0174739 -0.0685715 0.000423 -6.45937 -0.0403831 0.0671328 2650 
55 1 -0.00213088 -0.0172295 -0.0685453 0.000423 -6.38817 -0.108904 0.182327 2650 
2501 1 -0.0096843 -0.015013 -0.0682002 0.000116 -4.03928 0.0292638 0.585887 2650 
3399 1 -0.00712182 -0.014265 -0.0685893 4.2e-05 -6.18518 0.469126 0.639044 2650 
4019 1 -0.010253 -0.0117027 -0.0681173 0.000116 -4.53255 -0.17636 0.672701 2650 
1008 1 -0.00894371 -0.0117624 -0.0679933 0.000423 -4.46644 -0.0507238 0.562782 2650 
3282 1 -0.00674641 -0.00804242 -0.0686276 4.2e-05 -5.84739 0.396315 0.581961 2650 
333 1 -0.00450063 -0.00743339 -0.0681971 0.000656 -6.34316 0.0168099 0.412887 2650 
15 1 -0.00660621 -0.00183364 -0.0682586 0.000423 -6.50524 -0.183207 0.645355 2650 
1825 1 -0.0102576 -0.000535836 -0.0681158 0.000116 -6.69137 -0.0292355 1.01392 2650 
4035 1 -0.0152033 -0.0426154 -0.0671842 0.000116 -7.71021 -0.419046 1.80784 2650 
2667 1 -0.0132849 -0.0336018 -0.067277 0.000423 -6.33977 -0.0407173 1.29139 2650 
2920 1 -0.0147145 -0.0286546 -0.0672892 0.000116 -7.28374 0.312725 1.56984 2650 
2618 1 -0.0132354 -0.0271891 -0.0675993 0.000116 -6.38199 0.138939 1.22881 2650 
2064 1 -0.0121519 -0.0247034 -0.0678033 0.000116 -7.00766 -0.0159792 1.25707 2650 
3536 1 -0.0110304 -0.0247853 -0.0676849 0.000423 -6.00854 -0.755819 0.976366 2650 
3875 1 -0.0137026 -0.0204391 -0.0671959 0.000423 -6.9458 0.176765 1.41098 2650 
95 1 -0.0154485 -0.0188975 -0.0671288 0.000116 -5.60688 -0.130384 1.29703 2650 
3815 1 -0.0135767 -0.0175921 -0.0675327 0.000116 -5.02921 0.176158 1.02837 2650 
1072 1 -0.0122153 -0.0169619 -0.0677919 0.000116 -6.52423 -0.572221 1.19268 2650 
2143 1 -0.0101003 -0.0156832 -0.06783 0.000423 -4.02076 -0.233208 0.5954 2650 
2714 1 -0.0143468 -0.0113082 -0.0673675 0.000116 -4.06909 -0.181287 0.915719 2650 
198 1 -0.0172152 -0.0422377 -0.0666979 0.000116 -9.43695 0.030211 2.43487 2650 
2211 1 -0.0132131 -0.0299181 -0.0670569 0.000656 -7.08798 0.0928397 1.38116 2650 
886 1 -0.0157108 -0.0174881 -0.0665146 0.000656 -4.81728 -0.312684 1.11836 2650 
2741 1 -0.017368 -0.00468062 -0.0667299 4.2e-05 -4.92198 -0.0383803 1.28094 2650 
4316 1 -0.0182403 -0.0449445 -0.066102 0.000423 -7.10033 -0.140821 1.93049 2650 
1051 1 -0.0201596 -0.0283085 -0.0658377 0.000116 -6.06196 0.378106 1.84426 2650 
3444 1 -0.0198804 -0.0248584 -0.0656267 0.000423 -6.2973 0.0210168 1.91138 2650 
330 1 -0.0199655 -0.00375009 -0.0660005 4.2e-05 -7.49199 0.66678 2.24712 2650 
1256 1 -0.0223647 -0.0414471 -0.0648329 0.000423 -5.45328 0.136522 2.89127 2650 
3156 1 -0.0229056 -0.0395778 -0.0649627 0.000116 -6.29072 0.463254 2.21881 2650 
2532 1 -0.0200406 -0.0268816 -0.0653072 0.000656 -6.3982 -0.042204 1.9679 2650 
3936 1 -0.0235357 -0.00957132 -0.0648169 4.2e-05 -6.2371 1.16462 2.24866 2650 
2210 1 -0.0241567 -0.0307585 -0.0639344 0.000656 -5.96411 0.0898182 2.25665 2650 
4312 1 -0.0233496 -0.02465 -0.0644797 0.000423 -6.22587 0.20688 2.24651 2650 
2606 1 -0.024512 -0.0220511 -0.0643752 0.000116 -5.96879 0.176827 2.27855 2650 
71 1 -0.0176741 -0.0215457 -0.0645845 0.000116 -6.90577 -0.890091 1.89792 2650 
1130 1 -0.0242477 -0.0208448 -0.0641481 0.000423 -4.98351 -0.313186 1.87374 2650 
1169 1 -0.0249951 -0.0200035 -0.0641889 0.000116 -4.8152 0.490023 1.87915 2650 
19 1 -0.0262932 -0.0352047 -0.0633376 0.000423 -6.43182 -0.139141 2.67885 2650 
3140 1 -0.0275595 -0.0329695 -0.0631307 0.000116 -6.41008 0.379186 2.80146 2650 
4025 1 -0.0265914 -0.0210479 -0.0635445 0.000116 -6.25135 -0.0918591 2.61036 2650 
3748 1 -0.0255803 -0.0196921 -0.0636281 0.000423 -4.36631 -0.483709 1.75767 2650 
4260 1 -0.0273102 -0.00167774 -0.0632386 0.000116 -5.24954 -0.137416 2.26237 2650 
1596 1 -0.0264837 -0.000116022 -0.0635896 0.000116 -5.16457 0.00137277 2.14063 2650 
1463 1 -0.026944 -0.0377565 -0.0630627 0.000423 -5.78485 -0.153324 2.50122 2650 
2465 1 -0.0274598 -0.0348755 -0.0628406 0.000423 -6.4792 0.0022998 2.83842 2650 
3350 1 -0.0284735 -0.00559018 -0.062724 0.000116 -4.22508 0.0304366 1.89471 2650 
2074 1 -0.0284483 -0.00524833 -0.0627354 0.000116 -4.09506 0.0648501 1.88352 2650 
3037 1 -0.0292057 -0.00439407 -0.062386 0.000116 -4.80665 -0.254898 2.2594 2650 
3313 1 -0.0298299 -0.0380077 -0.0617504 0.000423 -6.14174 -0.036041 2.95894 2650 
747 1 -0.0301003 -0.0359738 -0.0619597 0.000116 -6.70649 -0.247973 3.25653 2650 
2271 1 -0.030905 -0.0341656 -0.0615626 0.000116 -6.04829 -0.0972629 3.04265 2650 
1544 1 -0.0287568 -0.0328323 -0.0620022 0.000656 -6.69767 0.00355452 3.08046 2650 
42 1 -0.0299809 -0.027499 -0.0616779 0.000423 -5.45795 0.215994 2.64996 2650 
2768 1 -0.0298203 -0.00162576 -0.061755 0.000423 -5.01353 0.176725 2.398 2650 
2091 1 -0.0299949 -0.0420798 -0.0614123 0.000656 -6.52443 -0.206542 3.20057 2650 
152 1 -0.0309279 -0.0398878 -0.0612075 0.000423 -6.45976 0.248374 3.28052 2650 
693 1 -0.0311247 -0.0343634 -0.0611091 0.000423 -5.99859 -0.15419 3.03117 2650 
468 1 -0.0346703 -0.0372558 -0.0591669 0.000423 -6.17543 0.169764 3.61985 2650 
1380 1 -0.0342227 -0.0309263 -0.0597825 0.000116 -5.47324 0.425767 3.11764 2650 
1687 1 -0.033675 -0.0312832 -0.0597414 0.000423 -5.86921 -0.229625 3.28206 2650 
1050 1 -0.0340035 -0.00771911 -0.0599069 0.000116 -4.95634 -0.237682 2.80642 2650 
2515 1 -0.0360648 -0.0266541 -0.0586883 0.000116 -5.33438 0.543759 3.27377 2650 
2827 1 -0.0306402 -0.00465309 -0.0585148 0.000116 -2.13199 -0.113737 2.35719 2650 
2527 1 -0.0365589 -4.20468e-05 -0.058469 4.2e-05 -3.57934 -0.00064028 2.26732 2650 
1377 1 -0.0367871 -0.00933313 -0.0582373 0.000116 -4.81081 -0.542694 3.03109 2650 
1046 1 -0.0371869 -0.000116031 -0.0579837 0.000116 -3.58803 0.000174183 2.30108 2650 
115 1 -0.037535 -0.0392604 -0.0571175 0.000656 -6.11896 0.029448 4.0312 2650 
3090 1 -0.0374055 -0.0286811 -0.0574752 0.000423 -5.81334 0.383288 3.77191 2650 
4268 1 -0.0385498 -0.0239458 -0.0571751 4.2e-05 -6.35793 0.505163 4.26612 2650 
2681 1 -0.0380772 -0.0204613 -0.0570356 0.000423 -5.31347 -0.11427 3.53418 2650 
186 1 -0.0382439 -0.00525302 -0.0572908 0.000116 -2.72308 -0.108996 1.83169 2650 
4308 1 -0.0393743 -0.039779 -0.056148 0.000423 -5.22465 -0.0802785 3.68936 2650 
2208 1 -0.0391175 -0.0264778 -0.0560378 0.000656 -5.95585 0.0144528 4.16663 2650 
2937 1 -0.0396856 -0.0153746 -0.0563027 0.000116 -5.52879 0.212686 3.84715 2650 
3707 1 -0.0397558 -0.0069425 -0.0562385 0.000116 -3.29939 -0.101485 2.37176 2650 
505 1 -0.0397193 -0.00161754 -0.0562777 0.000116 -3.48555 -0.107964 2.44766 2650 
981 1 -0.0405897 -0.0432071 -0.0557461 4.2e-05 -5.72589 1.59387 4.16686 2650 
1903 1 -0.0396694 -0.0380411 -0.0559387 0.000423 -5.85825 0.0123506 4.14819 2650 
2237 1 -0.0416011 -0.0406673 -0.0545186 0.000423 -5.2462 -0.0383379 3.99282 2650 
3431 1 -0.041285 -0.0320629 -0.0547347 0.000423 -5.26038 0.124155 3.91646 2650 
4254 1 -0.0431543 -0.00744587 -0.0536808 0.000116 -3.60564 0.278939 3.07473 2650 
399 1 -0.0439186 -0.016135 -0.0530663 0.000116 -5.01737 0.312777 4.17032 2650 
2186 1 -0.0440355 -0.00938625 -0.0529704 0.000116 -3.49139 -0.367633 2.96115 2650 
2578 1 -0.0437508 -0.0415641 -0.0528156 0.000423 -6.11573 0.085232 4.85471 2650 
4345 1 -0.0447773 -0.0143674 -0.0523445 0.000116 -5.26026 0.339832 4.50256 2650 
3828 1 -0.0443761 -0.00984773 -0.0527819 4.2e-05 -3.85547 -0.146888 3.24649 2650 
1055 1 -0.0443108 -0.00850011 -0.0527395 0.000116 -2.50267 -0.179611 2.10789 2650 
343 1 -0.0452579 -0.0425827 -0.0515225 0.000423 -5.13868 -0.0813167 4.52835 2650 
649 1 -0.045246 -0.023543 -0.0519394 0.000116 -3.68088 0.287895 3.20642 2650 
2862 1 -0.0454191 -0.0365369 -0.0510714 0.000656 -5.36647 -0.0381029 4.75703 2650 
4187 1 -0.0461802 -0.0358689 -0.0506985 0.000423 -5.30168 -0.020245 4.82137 2650 
1499 1 -0.0467814 -0.0233781 -0.050562 0.000116 -5.73504 -0.324576 5.32877 2650 
2921 1 -0.0467203 -0.012931 -0.0506182 0.000116 -4.35196 -0.273615 4.05557 2650 
3357 1 -0.0460596 -0.0127916 -0.0512196 0.000116 -4.02213 -0.60748 3.6148 2650 
3393 1 -0.0482511 -0.0105977 -0.0492653 4.2e-05 -2.31354 -0.388279 2.26017 2650 
1111 1 -0.0479349 -0.0223504 -0.0487187 0.000656 -5.05222 -0.0494516 4.99751 2650 
122 1 -0.0493158 -0.0311262 -0.0473204 0.000656 -4.99185 0.0274396 5.22201 2650 
1612 1 -0.0496715 -0.0302454 -0.0477268 0.000116 -4.96554 0.00557356 5.18028 2650 
335 1 -0.0493121 -0.0228286 -0.047324 0.000656 -4.9196 -0.0521005 5.1355 2650 
2116 1 -0.0489492 -0.0137373 -0.0480313 0.000423 -2.99452 -0.196955 3.0262 2650 
3425 1 -0.0497789 -0.0440867 -0.0471698 0.000423 -4.83805 -0.137598 5.08023 2650 
4319 1 -0.0502062 -0.031207 -0.0467164 0.000423 -4.94147 0.0728643 5.30222 2650 
1500 1 -0.0507412 -0.0282668 -0.0465878 0.000116 -4.21336 0.318247 4.58261 2650 
1119 1 -0.0501443 -0.0065784 -0.0467818 0.000423 -3.10133 -0.154582 3.29053 2650 
1076 1 -0.05197 -0.0067206 -0.0452124 0.000116 -2.23985 -0.0070195 2.59525 2650 
1392 1 -0.0520903 -0.00485657 -0.0450732 0.000116 -4.12934 0.229115 4.76713 2650 
164 1 -0.0521204 -0.0196079 -0.0445684 0.000423 -3.82879 -0.147962 4.46627 2650 
2169 1 -0.0534523 -0.0282224 -0.0434502 0.000116 -4.1659 0.377281 5.11916 2650 
1326 1 -0.0529486 -0.037867 -0.0432171 0.000656 -4.06976 0.0198512 4.95102 2650 
3891 1 -0.0534298 -0.0197085 -0.0429902 0.000423 -3.56488 -0.184958 4.39776 2650 
3013 1 -0.0533653 -0.0176694 -0.0430697 0.000423 -3.43318 0.19612 4.25298 2650 
1174 1 -0.0538955 -0.0161137 -0.0428985 0.000116 -3.87968 0.134969 4.87484 2650 
1816 1 -0.0553685 -0.0308872 -0.0409805 0.000116 -4.144 -0.652553 5.58549 2650 
4311 1 -0.0549838 -0.0207491 -0.0409858 0.000423 -3.96786 -0.204653 5.31955 2650 
631 1 -0.0552904 -0.00840471 -0.041073 0.000116 -2.26585 -0.109092 3.07487 2650 
203 1 -0.0551306 -0.00608006 -0.0412896 0.000116 -1.97316 -0.132027 2.5933 2650 
2212 1 -0.0550309 -0.0286363 -0.0405335 0.000656 -4.24425 -0.0926258 5.76338 2650 
1249 1 -0.0552524 -0.0266465 -0.0406227 0.000423 -3.94815 0.0956283 5.38838 2650 
2514 1 -0.0555996 -0.00208851 -0.040665 0.000116 -3.5362 -0.044062 4.90679 2650 
2327 1 -0.0560402 -0.0303857 -0.0395282 0.000423 -3.97311 0.190117 5.64293 2650 
239 1 -0.0556519 -0.0271974 -0.0400733 0.000423 -3.90322 0.0565158 5.39251 2650 
3089 1 -0.0557361 -0.0263151 -0.0399565 0.000423 -3.90476 0.0551295 5.45723 2650 
4255 1 -0.0561088 -0.0230423 -0.03996 0.000116 -3.48199 -1.51871 4.91688 2650 
2530 1 -0.0294023 -0.010816 -0.0394986 0.000656 -4.38946 -0.606834 -5.86144 2650 
355 1 -0.0570846 -0.032318 -0.0380036 0.000423 -3.86523 0.053211 5.81556 2650 
1202 1 -0.0573944 -0.0159206 -0.0382144 4.2e-05 -3.18117 0.09507 4.68206 2650 
4338 1 -0.0578568 -0.0121774 -0.0373412 0.000116 -3.41957 0.158981 5.26788 2650 
1890 1 -0.0578302 -0.0344769 -0.0368591 0.000423 -3.22196 0.0620937 5.04167 2650 
3000 1 -0.0581548 -0.0316545 -0.0363448 0.000423 -3.26809 0.232053 5.22254 2650 
365 1 -0.0579895 -0.0208486 -0.0366076 0.000423 -3.56173 0.244899 5.6454 2650 
4264 1 -0.0584753 -0.00972527 -0.0365179 4.2e-05 -3.35094 -0.425179 5.40368 2650 
671 1 -0.0583271 -0.0232363 -0.0356255 0.000656 -3.74705 -0.248811 6.12461 2650 
2790 1 -0.0587337 -0.0373736 -0.0354019 0.000423 -3.3745 0.0272894 5.60376 2650 
3256 1 -0.0591678 -0.0370783 -0.0352713 0.000116 -3.10243 -0.143338 5.16917 2650 
1471 1 -0.0587894 -0.0318082 -0.0353093 0.000423 -3.15126 0.0327714 5.2516 2650 
2626 1 -0.0592761 -0.0312743 -0.035088 0.000116 -3.35644 0.119351 5.66722 2650 
2242 1 -0.0588786 -0.0304678 -0.0351593 0.000423 -3.40767 0.0135144 5.68131 2650 
4331 1 -0.0594363 -0.0167573 -0.0348168 0.000116 -2.51941 -0.216989 4.34423 2650 
2246 1 -0.0594094 -0.0274978 -0.0342408 0.000423 -3.25014 0.10078 5.41085 2650 
2052 1 -0.0599507 -0.0234983 -0.0339082 0.000116 -3.7256 -0.0510662 6.56313 2650 
3964 1 -0.0595788 -0.0177692 -0.0339589 0.000423 -3.30349 -0.270592 5.73702 2650 
2245 1 -0.0596483 -0.0297461 -0.0338032 0.000423 -3.12681 0.158826 5.37283 2650 
3367 1 -0.0601969 -0.0268584 -0.0334436 0.000116 -3.16355 -1.07053 5.62373 2650 
3582 1 -0.0601886 -0.0195069 -0.0335009 0.000116 -3.19193 -0.435813 5.71716 2650 
1787 1 -0.0597226 -0.0143337 -0.0337078 0.000423 -3.23629 -0.102774 5.73249 2650 
2072 1 -0.0604213 -0.0360073 -0.0330251 0.000116 -3.54934 0.593535 6.45076 2650 
2256 1 -0.0608117 -0.0300896 -0.0323114 0.000116 -2.49676 -0.325419 4.8318 2650 
3574 1 -0.0604559 -0.02917 -0.032963 0.000116 -3.40012 -0.440249 6.242 2650 
2404 1 -0.0604525 -0.0179962 -0.0330223 0.000116 -2.17633 -0.838276 3.95894 2650 
1462 1 -0.0611809 -0.0421264 -0.0309807 0.000423 -3.03676 -0.405274 6.07229 2650 
672 1 -0.0613126 -0.0412689 -0.0301998 0.000656 -2.92927 -0.112571 5.95876 2650 
1568 1 -0.0615672 -0.0384301 -0.0302038 0.000423 -3.09693 0.627828 6.28711 2650 
577 1 -0.0613668 -0.0333552 -0.0306119 0.000423 -2.96635 0.274742 5.88754 2650 
921 1 -0.0614465 -0.0152521 -0.0304513 0.000423 -2.90082 0.0182082 5.88346 2650 
1095 1 -0.0586428 -0.00439473 -0.0303527 4.2e-05 -0.461329 -0.0935413 3.10181 2650 
2865 1 -0.0615462 -0.0270487 -0.029687 0.000656 -3.11256 -0.045966 6.43603 2650 
1031 1 -0.0617315 -0.0117529 -0.0298708 0.000423 -2.6736 -0.0982074 5.53652 2650 
2634 1 -0.0623487 -0.00761291 -0.0294601 4.2e-05 -2.06373 1.16198 4.36452 2650 
1996 1 -0.0621004 -0.0263371 -0.0290833 0.000423 -3.01026 -0.0539281 6.51983 2650 
2588 1 -0.0632639 -0.017188 -0.0272512 0.000116 -3.25115 0.538744 7.56181 2650 
13 1 -0.0633398 -0.013117 -0.0262884 0.000423 -2.03705 0.327147 4.98811 2650 
3096 1 -0.0632432 -0.0119441 -0.0265204 0.000423 -1.57338 -0.34504 3.70751 2650 
419 1 -0.0640388 -0.00716464 -0.0253799 0.000116 -1.96461 1.43638 4.9453 2650 
4323 1 -0.063802 -0.0256577 -0.0251457 0.000423 -2.57796 -0.147197 6.57135 2650 
4342 1 -0.0642283 -0.0248174 -0.0248937 0.000116 -2.48291 -0.0281021 6.41809 2650 
83 1 -0.0644473 -0.0370207 -0.0243208 0.000116 -1.71039 0.462331 4.5725 2650 
1958 1 -0.0646348 -0.0323783 -0.0238198 0.000116 -2.43288 0.844381 6.5885 2650 
208 1 -0.0645882 -0.0160366 -0.0239448 0.000116 -2.22607 -0.0692839 5.99933 2650 
2559 1 -0.064488 -0.0275616 -0.023329 0.000423 -2.40253 -0.0338327 6.62091 2650 
3248 1 -0.0648497 -0.0137973 -0.0232287 0.000116 -1.62054 0.00834636 4.49037 2650 
1210 1 -0.0649251 -0.0113669 -0.0232383 4.2e-05 -2.136 0.374465 5.95491 2650 
1808 1 -0.0492932 -0.0122092 -0.0227078 0.000423 -7.37388 -0.728334 -3.41155 2650 
213 1 -0.065228 -0.00744399 -0.0223739 4.2e-05 -1.83777 -0.0475181 5.39547 2650 
2037 1 -0.0654247 -0.0424562 -0.0215539 0.000116 -2.3846 0.566449 7.24783 2650 
542 1 -0.0579738 -0.00396524 -0.0215416 4.2e-05 -8.8011 -0.0909109 -3.27026 2650 
4052 1 -0.0654822 -0.000174329 -0.0216163 4.2e-05 -2.13095 -0.0705303 6.47771 2650 
2251 1 -0.0652996 -0.0301297 -0.0209517 0.000423 -1.781 0.0503261 5.53319 2650 
250 1 -0.0656747 -0.02317 -0.0197426 0.000423 -1.93752 -0.173643 6.48387 2650 
1419 1 -0.0658342 -0.0170606 -0.0202685 0.000116 -1.89519 0.616138 6.16607 2650 
269 1 -0.000133484 -0.00620239 -0.02001 0.000423 0.0681694 -0.551637 -1.81071 2650 
3196 1 -0.0658418 -0.0191684 -0.0191771 0.000423 -1.64307 -0.0495237 5.59957 2650 
3058 1 -0.00601326 -0.00365777 -0.0186304 0.000116 -0.791522 -0.0700658 -2.50222 2650 
862 1 -0.0664984 -0.0405434 -0.0179705 0.000116 -1.65547 -0.774129 6.11566 2650 
2247 1 -0.066257 -0.0239558 -0.0176903 0.000423 -1.89962 0.0341182 7.09902 2650 
2355 1 -0.0662584 -0.0152212 -0.0176835 0.000423 -1.70745 0.249783 6.38929 2650 
420 1 -0.0664868 -0.00104213 -0.0180134 0.000116 -1.6285 0.161242 6.00997 2650 
3040 1 -0.0667705 -0.0345884 -0.016933 0.000116 -1.50867 -0.248593 5.85177 2650 
817 1 -0.0663955 -0.0229643 -0.0171615 0.000423 -1.69993 -0.0481733 6.53366 2650 
2705 1 -0.0667735 -0.0192092 -0.0167551 0.000116 -1.3554 -1.64815 6.30094 2650 
596 1 -0.0665142 -0.0186468 -0.0166952 0.000423 -1.14212 -0.222455 4.53688 2650 
2274 1 -0.0667383 -0.0151617 -0.0170583 0.000116 -1.16708 0.23702 4.58971 2650 
1956 1 -0.0668358 -0.00534005 -0.0166726 0.000116 -1.27919 -0.0550393 5.11548 2650 
606 1 -0.000183 0.00204169 -0.016592 0.000116 0 -0.011753 0 2650 
2520 1 -0.000401947 0.00491676 -0.0166345 4.2e-05 0.00271487 -0.00197792 -0.0154802 2650 
3395 1 -0.00187056 0.0267626 -0.0166066 4.2e-05 -0.373207 -0.175316 -0.00254713 2650 
319 1 -0.0669482 -0.0303753 -0.0162156 0.000116 -1.62578 -0.332997 6.67367 2650 
2544 1 -0.066643 -0.0230664 -0.0161767 0.000423 -1.61279 -0.127276 6.61632 2650 
3640 1 -0.0151027 -0.00673824 -0.0163978 0.000423 -1.62132 -0.504732 -1.80563 2650 
2172 1 -0.00226761 -0.00129717 -0.0164526 0.000116 0.0682862 0.00746542 -0.00852403 2650 
30 1 -0.00128589 -0.000829174 -0.0159694 0.000423 -0.0136125 -0.0214967 0.00834717 2650 
2013 1 -0.00290138 0.00295822 -0.0159673 0.000423 -0.00154235 0.00221798 0.00156406 2650 
2301 1 -0.0042648 0.00384266 -0.0163492 4.2e-05 -0.00116259 -0.0070103 0.00459775 2650 
1679 1 -0.00397653 0.0039235 -0.0159363 0.000423 -0.00453172 0.0157125 0.00260684 2650 
2283 1 -0.00352298 0.00388429 -0.0164299 0.000116 -0.00010552 0.00956354 0.000789399 2650 
3121 1 -0.000422759 0.00518415 -0.0161972 0.000423 0.0292403 0.00123583 8.703e-05 2650 
978 1 -0.0033372 0.0064876 -0.0163214 0.000116 0.0180122 -0.00353228 -0.00159853 2650 
3934 1 -0.001977 0.00680369 -0.016218 0.000116 0 -0.011753 0 2650 
3177 1 -0.000314548 0.00867231 -0.0159591 4.2e-05 0.00917698 -0.00185525 -0.00666376 2650 
1483 1 -0.000409663 0.00974275 -0.0160447 0.000423 -0.00134867 0.0112238 -0.0085204 2650 
3007 1 -0.00247901 0.0109446 -0.0161595 0.000423 -0.00351627 -0.00337698 0.014455 2650 
371 1 -0.00054475 0.0106514 -0.0159978 0.000423 0.0024809 0.0249977 -0.0257035 2650 
188 1 -0.00211446 0.0119331 -0.0164236 0.000116 -0.0148612 0.0228045 0.00418427 2650 
2713 1 -0.000729172 0.0133616 -0.0162794 0.000116 0.00037122 0.035974 0.00535071 2650 
2924 1 -0.0056093 0.0144368 -0.0158022 0.000116 -0.0500795 0.0331408 0.0243033 2650 
3279 1 -0.000504812 0.0442057 -0.0162804 0.000116 0.0698602 -0.118112 -0.0910458 2650 
2021 1 -0.00463981 0.053596 -0.0158086 0.000423 0.161017 -0.0932862 -0.0357176 2650 
4244 1 -0.000240127 -0.00247507 -0.0150548 0.000116 -0.0436806 -0.00994679 0.0125723 2650 
736 1 -0.00645083 -0.000552854 -0.0151945 0.000116 -0.0307431 -0.0170391 0.0144389 2650 
2399 1 -0.002418 0.00225569 -0.015541 0.000116 0 -0.011753 0 2650 
3637 1 -0.00489184 0.00338086 -0.0156622 0.000423 -0.0121297 0.0118194 -0.00377228 2650 
1611 1 -0.00462474 0.00537232 -0.0152719 0.000116 0.0134772 -0.0209987 -0.0751807 2650 
4227 1 -0.000537011 0.00502191 -0.0152973 0.000116 0.00143204 -0.0228975 -0.0290312 2650 
2438 1 -0.00590392 0.00726699 -0.0150659 0.000423 -0.00468347 -0.000292455 -0.00123863 2650 
3830 1 -0.006879 0.00835569 -0.015411 4.2e-05 0 -0.011753 0 2650 
233 1 -0.00410426 0.00912194 -0.015116 0.000423 0.0114684 -0.00558491 0.0116559 2650 
289 1 -0.0029618 0.00971806 -0.0154832 0.000116 -0.00850769 0.000708308 0.0302001 2650 
2969 1 -0.00215711 0.00989711 -0.015095 0.000656 -0.00775713 0.0181674 -1.8219e-05 2650 
938 1 -0.00144508 0.00989252 -0.0155881 0.000116 -0.00119823 0.000558801 -0.00633771 2650 
3500 1 -0.00205132 0.0107454 -0.0156051 4.2e-05 -0.0454796 -0.00333034 0.0313479 2650 
2793 1 -0.000805953 0.0102941 -0.0152524 0.000423 -0.0133021 0.0647623 0.00243086 2650 
3644 1 -0.00115718 0.0129359 -0.0157334 0.000423 -0.000399523 0.00418678 0.0157329 2650 
2585 1 -0.000281275 0.0222028 -0.0154803 0.000116 -0.0221426 0.0759057 0.0070692 2650 
148 1 -0.00621111 0.0309784 -0.0152233 0.000423 -0.145516 -0.155086 0.0592808 2650 
2084 1 -0.00680894 0.0324857 -0.0154613 4.2e-05 0.307681 0.103105 -0.161547 2650 
4010 1 -0.00583554 0.0400314 -0.0156843 0.000116 -0.0944465 0.099748 0.0197066 2650 
3440 1 -0.066808 -0.0412684 -0.014604 0.000423 -3.01735 0.0707931 8.41908 2650 
2666 1 -0.00539522 -0.0026027 -0.014241 0.000423 0.0429038 -0.00888448 0.00629481 2650 
1053 1 -0.007469 -0.00158631 -0.014946 0.000116 0 -0.011753 0 2650 
509 1 -0.00749976 -0.000276974 -0.0149765 0.000116 -0.00480979 -0.0076817 0.0108723 2650 
1991 1 -0.00707212 0.00032436 -0.0144122 0.000656 -0.019376 -0.00203791 0.00870126 2650 
3239 1 -0.00583384 0.00125329 -0.0145309 0.000116 -0.0248133 -0.00752354 0.0120924 2650 
857 1 -0.00308729 0.00202191 -0.0149303 0.000116 -0.0623021 0.0193526 0.00200378 2650 
3365 1 -0.002315 0.00468169 -0.014552 0.000116 0 -0.011753 0 2650 
1192 1 -0.00671738 0.00532883 -0.0142274 0.000116 -0.0160738 0.0171838 -0.0228619 2650 
1388 1 -0.00467947 0.00541585 -0.0143442 0.000116 -0.039288 0.0021603 0.0169103 2650 
2344 1 -0.000375441 0.00506772 -0.0143041 0.000423 0.00575909 -0.0231993 -0.0217047 2650 
581 1 -0.00563078 0.00803197 -0.014572 0.000423 0.000441693 0.00100922 0.00165067 2650 
2092 1 -0.00666777 0.00915405 -0.0145247 0.000656 -0.00167296 0.00263094 0.0238503 2650 
86 1 -0.00363634 0.0100144 -0.014991 0.000116 -0.0196067 0.0126222 0.000798653 2650 
70 1 -0.00626462 0.0109356 -0.0146627 0.000116 0.0420474 0.0335815 -0.0676972 2650 
2781 1 -0.00603606 0.0105369 -0.0143192 0.000423 -0.00287998 0.011096 -0.0317373 2650 
1617 1 -0.000869242 0.0107028 -0.0145172 0.000116 0.00511482 0.0710113 0.047396 2650 
1228 1 -0.00168628 0.0115564 -0.0149637 0.000423 -0.0026547 0.0243513 0.000515369 2650 
2182 1 -0.000886329 0.011061 -0.0147664 0.000116 -0.0273815 0.022445 -0.0411396 2650 
1839 1 -0.00218867 0.0148095 -0.0149875 0.000116 -0.0676852 0.0211351 0.0188737 2650 
4231 1 -0.00132977 0.0180288 -0.0143402 0.000116 -0.0134934 0.0153003 0.0304581 2650 
2466 1 -0.00713253 0.0203387 -0.0146982 0.000423 0.048327 0.0396991 -0.0547289 2650 
2497 1 -0.00756208 0.0231457 -0.0149554 0.000116 0.26823 0.110209 -0.140993 2650 
4234 1 -0.0044123 0.0300359 -0.0144383 0.000116 -0.0277623 0.0670651 -0.0707711 2650 
945 1 -0.00805453 0.0482941 -0.014615 0.000116 -0.192436 -0.107086 0.0844573 2650 
3599 1 -0.00161248 -0.00127269 -0.0138995 0.000116 0.00758272 -0.00512374 -0.0536854 2650 
2332 1 -0.00538671 -0.000594476 -0.013554 0.000423 -0.0114447 -0.00779769 0.00753018 2650 
2922 1 -0.0074655 0.00137683 -0.0137903 0.000116 -0.00925852 -0.000802711 0.00675368 2650 
2512 1 -0.00775489 0.00252938 -0.0134531 0.000116 0.018779 -0.0192413 0.00230208 2650 
3587 1 -0.00887258 0.0038075 -0.0135308 0.000116 -0.0579635 0.0255056 0.0285778 2650 
150 1 -0.00844499 0.00319558 -0.0139181 0.000423 -0.0542472 0.016714 0.0257745 2650 
220 1 -0.00344493 0.00321999 -0.0142024 4.2e-05 0.00197382 0.00663681 0.00671825 2650 
4300 1 -0.000642494 0.00363467 -0.0135629 0.000423 0.0157414 0.0249973 -0.0399245 2650 
2913 1 -0.00910489 0.00461623 -0.0138026 0.000116 -0.0140945 -0.0228944 -0.00540615 2650 
2322 1 -0.00900124 0.0060629 -0.0134707 0.000656 -0.00299145 -0.013582 0.00409796 2650 
1288 1 -0.002467 0.00598469 -0.014044 0.000116 0 -0.011753 0 2650 
3515 1 -0.00815056 0.00694097 -0.013966 0.000656 -0.00927244 -0.00874495 -0.000839897 2650 
2918 1 -0.0070983 0.00634547 -0.0137813 0.000116 0.0149777 0.0131491 0.0124233 2650 
963 1 -0.00702145 0.00704276 -0.0138144 0.000116 0.00350227 -0.00324664 0.0156587 2650 
1618 1 -0.00990572 0.00748065 -0.0135791 0.000116 0.0059414 0.00192455 -0.00369393 2650 
1250 1 -0.00865004 0.00781373 -0.013438 0.000423 -0.00730125 -0.00574558 -0.000431452 2650 
4257 1 -0.00800333 0.00778564 -0.013427 0.000116 -0.00578911 -0.00907208 0.00958653 2650 
2222 1 -0.000741195 0.00772154 -0.0135225 0.000423 0.00109584 0.00172293 0.0219135 2650 
1769 1 -0.00773199 0.00846967 -0.0139882 0.000656 -0.0151574 -0.00915465 0.00228284 2650 
2313 1 -0.00373696 0.00807922 -0.0141351 0.000656 0.0121795 0.0249345 0.010824 2650 
1237 1 -0.00934455 0.00912255 -0.0134563 0.000423 -0.00605829 0.0121717 0.00682088 2650 
4190 1 -0.00871435 0.00891866 -0.0139833 0.000423 -0.00859035 0.00712776 0.00539587 2650 
1476 1 -0.00728918 0.00991951 -0.0134374 0.000423 -0.00473027 0.00118609 -0.000138689 2650 
1827 1 -0.00610901 0.00975682 -0.0138441 0.000116 0.0445821 -0.0304485 -0.00868089 2650 
1409 1 -0.00044 0.00976469 -0.013868 0.000116 0 -0.011753 0 2650 
3150 1 -0.000925574 0.0107173 -0.013994 0.000116 -0.0182263 -0.0087302 -0.0269448 2650 
3163 1 -0.00817895 0.012635 -0.0141428 0.000116 -0.0370466 0.0283549 -0.0433006 2650 
1717 1 -0.00297512 0.0258666 -0.013596 0.000116 -0.014717 0.0706098 -0.0348682 2650 
1195 1 -0.00702133 0.0294863 -0.0139762 0.000116 0.0557766 0.0782116 -0.0138054 2650 
2643 1 -0.00728253 0.0318204 -0.0134491 0.000656 -0.0823633 0.0688822 0.0201377 2650 
1124 1 -0.00195541 0.0367854 -0.0141346 0.000423 0.115227 0.0704534 -0.0460588 2650 
2863 1 -0.00466008 0.0486408 -0.0140661 0.000656 0.0278245 0.133951 -0.121512 2650 
4097 1 -0.00739242 -0.00326394 -0.013356 0.000423 0.0222564 -0.0142204 -0.0225559 2650 
1763 1 -0.00142097 -0.00299769 -0.0127172 0.000656 -0.0890582 0.0217677 -0.0881811 2650 
3576 1 -0.00458721 -0.00147112 -0.013269 0.000116 0.0561059 0.00120064 -0.0311085 2650 
3191 1 -0.00898432 -0.000439379 -0.0127882 0.000656 -0.0183475 -0.00795438 -0.00635009 2650 
623 1 -0.00779091 -0.000266979 -0.0132072 0.000116 -0.0192086 -0.00896372 0.0230222 2650 
2525 1 -0.004063 0.000211687 -0.013231 4.2e-05 0 -0.011753 0 2650 
4126 1 -0.00725875 0.000932473 -0.0128809 0.000116 -0.0261531 0.0084042 0.00402279 2650 
2619 1 -0.00607073 0.00088985 -0.0127694 0.000116 -0.0137973 -0.0204082 0.00531131 2650 
4165 1 -0.00524295 0.00102888 -0.0129187 0.000656 -0.00295906 -0.0330191 0.0101422 2650 
3880 1 -0.0103423 0.00203562 -0.0128777 0.000423 -0.0020648 -0.00583391 0.00454369 2650 
2473 1 -0.00938508 0.00198623 -0.0127764 0.000423 0.0167774 -0.00661482 -0.0238345 2650 
2609 1 -0.00886 0.00175169 -0.013248 0.000116 0 -0.011753 0 2650 
3316 1 -0.00944529 0.00309227 -0.0131279 0.000423 -0.00544519 -0.0183171 -0.00879554 2650 
1171 1 -0.00745622 0.00315493 -0.01291 0.000116 0.0131753 -0.0110464 0.0150896 2650 