ITEM: TIMESTEP
8454834
ITEM: NUMBER OF ATOMS
4352
ITEM: BOX BOUNDS ff ff ff
-0.15 0.15
-0.15 0.06
-0.15 0.15
ITEM: ATOMS id type x y z radius vx vy vz density 
3266 1 -0.117024 -0.0630673 0.0590826 0.000116 -4.90109 -0.06846 7.96896 2650 
1856 1 -0.0103655 -0.0561224 -0.0680998 0.000116 -5.11868 0.131307 0.775352 2650 
980 1 -0.0117555 -0.0475832 -0.0679486 4.2e-05 -6.44597 -0.382809 1.10937 2650 
2037 1 -0.00635416 -0.0476306 -0.0685903 0.000116 -7.56724 0.389066 0.712707 2650 
3570 1 -0.0253677 -0.0598917 -0.064041 0.000116 -4.12727 -1.2182 1.61374 2650 
691 1 -0.0273957 -0.0475006 -0.0628472 0.000423 -6.37593 -0.216055 2.84955 2650 
3314 1 -0.0281562 -0.0462374 -0.0625277 0.000423 -6.3504 -0.0369915 2.87472 2650 
3391 1 -0.0295743 -0.0568024 -0.062294 4.2e-05 -5.45808 0.213077 2.57331 2650 
844 1 -0.0338319 -0.0472955 -0.0600035 0.000116 -5.49393 -0.301186 3.08958 2650 
4288 1 -0.0355127 -0.0495305 -0.0586671 0.000423 -5.76745 0.00827272 3.47224 2650 
1316 1 -0.051963 -0.0497827 -0.0453325 4.2e-05 -3.76022 0.536436 4.31342 2650 
2819 1 -0.0522482 -0.0520101 -0.0448906 0.000116 -4.44634 -0.426695 5.17404 2650 
4133 1 -0.0531385 -0.0477059 -0.0438333 0.000116 -4.44739 0.315326 5.4083 2650 
4376 1 -0.0556793 -0.0481217 -0.0406824 4.2e-05 -4.03818 -3.07059 5.54072 2650 
2775 1 -0.0626554 -0.0500849 -0.0278783 0.000423 -2.36353 0.98692 5.322 2650 
3519 1 -0.0639227 -0.0452049 -0.0241893 0.000656 -2.67233 0.0352458 7.05188 2650 
2833 1 -0.065298 -0.0482891 -0.0219365 0.000116 -2.02811 0.471619 6.04582 2650 
2201 1 -0.0664063 -0.0493084 -0.0161694 0.000656 -1.72024 -0.078285 7.08666 2650 
482 1 -0.0684445 -0.0567613 -0.00398303 0.000423 -0.420119 -0.00575761 6.52394 2650 
739 1 -0.068754 -0.0555776 0.00423402 0.000116 0.377684 0.0470404 6.09479 2650 
2857 1 -0.0674591 -0.0461024 0.0109809 0.000656 1.01029 0.0110795 6.27107 2650 
3957 1 -0.0648839 -0.0536329 0.0213943 0.000656 2.31311 -0.00898697 6.8943 2650 
379 1 -0.0623522 -0.0473474 0.0285505 0.000423 2.59346 -0.22017 5.64598 2650 
1424 1 -0.0173482 -0.0565158 0.0667386 4.2e-05 4.9256 -0.909802 1.36712 2650 
2314 1 -0.01591 -0.0470015 0.0664537 0.000656 7.30256 -0.184771 1.79176 2650 
1598 1 -0.000695489 -0.0203667 -0.0896733 0.000116 -9.07169 0.0566111 -7.43651 2650 
2626 1 -0.00499971 -0.0287879 -0.0687023 0.000116 -6.08424 -0.270706 0.471717 2650 
2588 1 -0.00125224 -0.0228045 -0.0688727 0.000116 -6.16548 0.526119 0.104826 2650 
3582 1 -0.00469526 -0.0141882 -0.0687235 0.000116 -6.4946 -0.55455 0.441693 2650 
4338 1 -0.00310634 -0.0137203 -0.0688138 0.000116 -6.22436 0.130498 0.269131 2650 
4254 1 -0.00193232 -0.00881319 -0.0688572 0.000116 -3.51445 -0.103308 0.0808175 2650 
4264 1 -0.00326095 -0.00535644 -0.0688804 4.2e-05 -6.32366 -0.390483 0.300062 2650 
2514 1 -0.0014538 -0.00157486 -0.0688684 0.000116 -6.00399 -0.0514901 0.121663 2650 
1958 1 -0.0102642 -0.0399444 -0.0681139 0.000116 -6.92058 0.554264 1.02691 2650 
2790 1 -0.00233282 -0.0371298 -0.0685378 0.000423 -6.43787 -0.0814891 0.20375 2650 
577 1 -0.0073118 -0.0358197 -0.0681753 0.000423 -6.46331 0.180555 0.591944 2650 
3000 1 -0.00398793 -0.0349532 -0.0684614 0.000423 -6.60091 0.367121 0.376573 2650 
3256 1 -0.0080964 -0.0344063 -0.0683679 0.000116 -5.95002 -0.411542 0.648994 2650 
1890 1 -0.00803015 -0.0339184 -0.0680646 0.000423 -5.20646 -0.137471 0.535718 2650 
1471 1 -0.00684341 -0.0329366 -0.0682205 0.000423 -6.00459 0.174093 0.463075 2650 
2245 1 -0.00767802 -0.0318616 -0.0681118 0.000423 -6.0883 0.233166 0.605725 2650 
2242 1 -0.00166548 -0.0294884 -0.0685577 0.000423 -6.53596 -0.19968 0.155415 2650 
2246 1 -0.00623034 -0.0276217 -0.0682951 0.000423 -6.16286 -0.081859 0.617174 2650 
2865 1 -0.00229928 -0.0264213 -0.0683071 0.000656 -7.00634 -0.0687494 0.225112 2650 
1996 1 -0.00317666 -0.025825 -0.0685041 0.000423 -7.00571 -0.038439 0.320125 2650 
4342 1 -0.0106305 -0.0245241 -0.0680568 0.000116 -6.7613 -0.0286822 1.10485 2650 
4323 1 -0.00842595 -0.0233718 -0.0680576 0.000423 -6.89725 -0.285037 0.882177 2650 
2705 1 -0.00576053 -0.0205088 -0.0686687 0.000116 -6.2612 -0.271889 0.181752 2650 
365 1 -0.00578093 -0.0189488 -0.0683329 0.000423 -6.58635 0.0980564 0.545072 2650 
3013 1 -0.00927032 -0.0177955 -0.0679433 0.000423 -3.35201 -0.752629 0.468091 2650 
1202 1 -0.00844571 -0.0150676 -0.0684113 4.2e-05 -5.60975 -0.24901 0.648067 2650 
921 1 -0.00796967 -0.0156502 -0.0680972 0.000423 -6.41017 0.0633344 0.688582 2650 
3964 1 -0.00343655 -0.0152547 -0.0684912 0.000423 -6.48173 -0.198186 0.327444 2650 
3367 1 -0.011681 -0.014009 -0.0678804 0.000116 -5.00947 -1.26403 0.838667 2650 
1787 1 -0.0040646 -0.013682 -0.068457 0.000423 -6.449 -0.018113 0.386078 2650 
1119 1 -0.00945484 -0.00522455 -0.0679047 0.000423 -4.34305 -0.103197 0.650069 2650 
3440 1 -0.0108438 -0.0421163 -0.0677154 0.000423 -7.55051 0.0809425 1.20708 2650 
534 1 -0.0147764 -0.0409529 -0.0672804 0.000116 -9.29743 0.190719 2.03813 2650 
2559 1 -0.0105036 -0.0265419 -0.0677677 0.000423 -6.86817 -0.168042 1.00843 2650 
2247 1 -0.0131637 -0.0240723 -0.0673023 0.000423 -7.11469 -0.0200944 1.40293 2650 
1955 1 -0.0146579 -0.0229021 -0.0673058 0.000116 -8.2491 -0.322686 1.79829 2650 
2116 1 -0.0107168 -0.0121204 -0.0677094 0.000423 -4.00403 -0.102479 0.84951 2650 
1031 1 -0.012894 -0.0110463 -0.0673486 0.000423 -5.91772 -0.0316411 1.15289 2650 
4052 1 -0.015548 -0.00762356 -0.0671822 4.2e-05 -6.54134 0.880611 1.4978 2650 
1055 1 -0.0140394 -0.00670234 -0.0674368 0.000116 -3.12851 -0.16844 0.67529 2650 
1619 1 -0.0186175 -0.0440086 -0.0663197 0.000116 -6.37158 0.703096 1.78822 2650 
672 1 -0.0139254 -0.0391765 -0.0669128 0.000656 -5.49694 -0.268577 1.13481 2650 
2256 1 -0.0176153 -0.027363 -0.0665936 0.000116 -5.19798 -0.193413 1.38945 2650 
250 1 -0.0172266 -0.0212706 -0.0663786 0.000423 -6.4111 -0.185029 1.65068 2650 
1210 1 -0.0181115 -0.0165844 -0.0665364 4.2e-05 -6.08296 0.609589 1.65459 2650 
208 1 -0.0166177 -0.0153409 -0.0668492 0.000116 -6.1729 -0.0556398 1.5382 2650 
327 1 -0.0177184 -0.00504732 -0.0666427 4.2e-05 -7.99644 1.27255 2.1316 2650 
319 1 -0.0196105 -0.0239921 -0.0660335 0.000116 -6.55719 -0.866908 1.94419 2650 
817 1 -0.018981 -0.0231774 -0.065899 0.000423 -6.53187 0.0912811 1.87364 2650 
4320 1 -0.0184215 -0.0197461 -0.0660574 0.000423 -7.02854 -0.0117797 1.96034 2650 
4331 1 -0.0190198 -0.0146876 -0.0662063 0.000116 -4.77216 -0.167431 1.38147 2650 
862 1 -0.0232688 -0.0301661 -0.0648354 0.000116 -5.93157 -1.16042 2.10678 2650 
1419 1 -0.0196899 -0.0223794 -0.0647989 0.000116 -5.35687 -0.958719 0.502447 2650 
2544 1 -0.0211312 -0.0208379 -0.065242 0.000423 -6.22698 -0.278437 2.0129 2650 
2355 1 -0.0205392 -0.0186214 -0.0654297 0.000423 -6.23184 0.392487 1.95014 2650 
1076 1 -0.0228591 -0.00680406 -0.0649802 0.000116 -3.16291 0.0162853 1.10791 2650 
1591 1 -0.0231414 -0.032808 -0.0645563 0.000423 -6.68393 0.441028 2.38645 2650 
13 1 -0.0243451 -0.0168142 -0.0641116 0.000423 -4.91546 0.372989 1.86959 2650 
631 1 -0.0239391 -0.00735183 -0.0645909 0.000116 -3.5274 -0.0904479 1.27876 2650 
213 1 -0.0252484 -0.0070539 -0.0641696 4.2e-05 -5.28076 -0.0285811 2.06597 2650 
420 1 -0.0243179 -0.0053039 -0.064449 0.000116 -5.78961 0.633252 2.1746 2650 
2251 1 -0.0253956 -0.0308616 -0.0637028 0.000423 -5.2893 0.0811276 2.09617 2650 
3040 1 -0.0271179 -0.0307229 -0.0633215 0.000116 -5.51864 -0.472273 2.35672 2650 
1214 1 -0.0244031 -0.0245457 -0.0638412 0.000656 -6.83242 -0.129938 2.66328 2650 
2147 1 -0.0274907 -0.0130196 -0.0631603 0.000116 -5.91935 0.458776 2.56803 2650 
2404 1 -0.0259877 -0.00972598 -0.0637937 0.000116 -4.12622 -0.72283 1.69065 2650 
579 1 -0.0284813 -0.0293771 -0.0623838 0.000423 -5.69713 -0.0678042 2.60824 2650 
4132 1 -0.0290426 -0.0267129 -0.0624623 0.000116 -5.27717 0.301246 2.46859 2650 
3196 1 -0.026997 -0.0193019 -0.0630405 0.000423 -5.24001 0.0773462 2.23178 2650 
3349 1 -0.0267152 -0.04131 -0.0615949 0.000116 -6.0263 0.877079 5.89544 2650 
1239 1 -0.0298586 -0.0397929 -0.0617368 0.000423 -6.95714 -0.028671 3.36374 2650 
2010 1 -0.028938 -0.0315959 -0.0621734 0.000423 -5.79236 -0.39658 2.71344 2650 
4297 1 -0.0290234 -0.0275863 -0.0621336 0.000423 -5.94917 0.145087 2.76759 2650 
1952 1 -0.0296562 -0.0221084 -0.0621728 0.000116 -6.16545 -0.243478 2.93535 2650 
588 1 -0.0293207 -0.0204796 -0.0619939 0.000423 -5.85672 0.187448 2.72674 2650 
4128 1 -0.0296322 -0.0175833 -0.0621822 0.000116 -6.11376 -0.66733 2.8512 2650 
2274 1 -0.0295623 -0.0166487 -0.0622167 0.000116 -6.37511 0.00180867 2.96654 2650 
2634 1 -0.0306786 -0.0147032 -0.0617413 4.2e-05 -3.41419 -0.0711605 1.58343 2650 
3378 1 -0.0305357 -0.00121611 -0.0617381 0.000116 -6.14996 -0.0852438 3.06392 2650 
83 1 -0.0311951 -0.0410652 -0.0614156 0.000116 -4.30199 0.29499 2.19747 2650 
3181 1 -0.0323793 -0.0247732 -0.060883 4.2e-05 -6.34609 0.261977 3.38544 2650 
3522 1 -0.0315988 -0.0251109 -0.060864 0.000423 -6.13333 0.0492925 3.18426 2650 
353 1 -0.0316944 -0.0225362 -0.0608139 0.000423 -6.13952 -0.0113662 3.18353 2650 
419 1 -0.032024 -0.0161292 -0.0609811 0.000116 -3.19463 -0.167483 1.62356 2650 
4056 1 -0.0327903 -0.0239356 -0.0599662 0.000656 -6.16884 -0.150577 3.39883 2650 
4286 1 -0.0324405 -0.0226853 -0.0604193 0.000423 -6.13122 -0.059416 3.28712 2650 
3248 1 -0.0332382 -0.0138427 -0.0603329 0.000116 -4.17763 0.00779422 2.19452 2650 
753 1 -0.0346458 -0.0292656 -0.0595379 0.000116 -6.2271 0.60086 3.6242 2650 
3863 1 -0.0338871 -0.0177728 -0.0596179 0.000423 -5.50932 0.0458107 3.11688 2650 
1956 1 -0.0346072 -0.00449048 -0.0595575 0.000116 -4.54372 -0.0990358 2.58252 2650 
838 1 -0.036569 -0.0340445 -0.0583763 0.000116 -5.68228 0.727967 3.5688 2650 
3329 1 -0.035097 -0.0322454 -0.0589177 0.000423 -5.42703 -0.0279264 3.22225 2650 
2028 1 -0.0348846 -0.0262434 -0.0590425 0.000423 -5.39399 -0.0479948 3.20225 2650 
3192 1 -0.0356323 -0.0429914 -0.0583225 0.000656 -5.06338 -0.476917 3.07997 2650 
3516 1 -0.0364373 -0.0354691 -0.0578226 0.000656 -6.10282 -0.211085 3.86077 2650 
3330 1 -0.0364656 -0.0274978 -0.0580802 0.000423 -5.6449 0.220456 3.56663 2650 
4147 1 -0.0372233 -0.0257923 -0.0579603 0.000116 -5.63398 0.449262 3.62291 2650 
3741 1 -0.0372463 -0.024806 -0.0575815 0.000423 -5.76857 0.0760728 3.73473 2650 
670 1 -0.0359633 -0.012116 -0.0581182 0.000656 -5.18647 -0.0622007 3.2095 2650 
3096 1 -0.0369559 -0.00887011 -0.057763 0.000423 -3.24691 -0.229292 2.12891 2650 
658 1 -0.0402037 -0.029038 -0.0560261 4.2e-05 -5.26473 0.0551458 3.77883 2650 
1335 1 -0.0393316 -0.00944279 -0.0561789 0.000423 -4.5648 -0.0232446 3.20207 2650 
3219 1 -0.0396768 -0.0401537 -0.0559346 0.000423 -3.0926 -1.04319 2.18473 2650 
3204 1 -0.0396921 -0.0230089 -0.0559231 0.000423 -5.61395 0.129125 3.96386 2650 
596 1 -0.0402046 -0.0157619 -0.0555567 0.000423 -3.62169 -0.278557 2.62428 2650 
2476 1 -0.0401829 -0.00905385 -0.0559505 0.000116 -4.55539 0.0651905 3.28428 2650 
3585 1 -0.040954 -0.000575469 -0.0553872 0.000116 -4.54297 -0.106078 3.34334 2650 
1960 1 -0.0420158 -0.0205142 -0.0545871 0.000116 -5.23635 0.526578 4.02606 2650 
1690 1 -0.0423411 -0.0246867 -0.0539466 0.000423 -2.74608 -1.07587 2.14923 2650 
203 1 -0.027847 -0.00476719 -0.0538985 0.000116 -4.35828 -0.134393 -8.43557 2650 
3539 1 -0.0429103 -0.00900882 -0.0534953 0.000423 -4.6997 0.0754609 3.76886 2650 
2118 1 -0.0438276 -0.0314813 -0.0527392 0.000423 -4.75758 -0.328403 4.02275 2650 
1990 1 -0.0434257 -0.0271604 -0.0527695 0.000656 -5.19867 0.0376216 4.21296 2650 
3671 1 -0.0440752 -0.0165758 -0.0525382 0.000423 -4.59368 -0.0644632 3.85827 2650 
2367 1 -0.0457674 -0.0282998 -0.0514511 0.000116 -4.31312 0.493249 3.69025 2650 
1323 1 -0.0444051 -0.0279788 -0.0519463 0.000656 -5.07607 -0.154909 4.3523 2650 
432 1 -0.0457685 -0.0121141 -0.0515796 4.2e-05 -3.51988 -0.154562 3.12543 2650 
3959 1 -0.0462741 -0.0263382 -0.0505848 0.000423 -4.36995 0.161748 3.96072 2650 
2593 1 -0.0476523 -0.0112828 -0.0497413 0.000116 -4.24852 -0.096649 4.07155 2650 
1886 1 -0.0471379 -0.00991408 -0.0498087 0.000423 -4.10446 0.207477 3.86714 2650 
4373 1 -0.0474275 -0.0077308 -0.0500577 4.2e-05 -3.10622 -0.192133 2.9351 2650 
186 1 -0.00954106 -0.00422757 -0.0503329 0.000116 -1.45642 -0.112284 -7.59898 2650 
2371 1 -0.0483003 -0.0163259 -0.0491129 0.000116 -4.05346 0.0755807 4.01321 2650 
2875 1 -0.048437 -0.0158411 -0.0485466 0.000423 -4.02696 0.0891558 4.03066 2650 
1445 1 -0.0493104 -0.0265955 -0.04766 0.000423 -4.24128 -0.251704 4.34974 2650 
1849 1 -0.049333 -0.0107651 -0.0480756 0.000116 -2.98997 -0.32643 3.04819 2650 
2160 1 -0.0494325 -0.0103017 -0.0479731 0.000116 -3.37753 0.158148 3.47503 2650 
758 1 -0.0507344 -0.0243718 -0.0465942 0.000116 -2.96966 -0.446426 3.25945 2650 
3989 1 -0.0522583 -0.0268089 -0.0444076 0.000423 -4.16293 -0.0277058 4.91286 2650 
2051 1 -0.0532577 -0.019101 -0.0436878 0.000116 -3.70284 -0.136964 4.54163 2650 
1417 1 -0.0538806 -0.0291058 -0.042918 0.000116 -4.03148 0.244764 5.05642 2650 
1503 1 -0.0539323 -0.00060444 -0.0428521 0.000116 -3.57526 0.00611077 4.48016 2650 
2296 1 -0.0544114 -0.0301527 -0.0422432 0.000116 -3.38464 0.288644 4.38658 2650 
2310 1 -0.0544708 -0.0240004 -0.0422858 4.2e-05 -3.48992 1.33541 4.48376 2650 
3381 1 -0.0545406 -0.0206886 -0.0420759 0.000116 -3.66845 -0.23209 4.77937 2650 
56 1 -0.0548787 -0.0259529 -0.0411264 0.000423 -3.67619 0.0392546 4.89943 2650 
1798 1 -0.0549627 -0.0250381 -0.0410136 0.000423 -3.73748 0.0708333 5.0367 2650 
1466 1 -0.0549944 -0.0222973 -0.0409699 0.000423 -3.52213 0.268278 4.72434 2650 
1924 1 -0.0550036 -0.0365903 -0.0409568 0.000423 -3.64483 0.211946 4.93917 2650 
2779 1 -0.0554082 -0.0296164 -0.0404108 0.000423 -3.89235 0.0390199 5.35056 2650 
3636 1 -0.0552622 -0.0265718 -0.0406095 0.000423 -3.62983 0.0135367 4.93099 2650 
4016 1 -0.0562828 -0.0241994 -0.0397144 0.000116 -3.7161 0.079009 5.26114 2650 
3718 1 -0.056486 -0.00673424 -0.039555 4.2e-05 -3.80622 -0.460411 5.43401 2650 
2282 1 -0.0560005 -0.00122008 -0.0401116 0.000116 -3.63529 -0.197609 5.09079 2650 
835 1 -0.0570214 -0.0293774 -0.0386462 0.000116 -3.74472 0.142682 5.55342 2650 
3960 1 -0.0566857 -0.0235689 -0.0385953 0.000423 -3.42596 -0.106346 5.09618 2650 
167 1 -0.057525 -0.0384637 -0.0378919 0.000116 -3.73096 0.424688 5.6746 2650 
2395 1 -0.05731 -0.0325328 -0.0382146 0.000116 -3.74279 -0.355669 5.61594 2650 
4068 1 -0.0568844 -0.0252129 -0.0383035 0.000423 -3.59043 -0.100733 5.36683 2650 
4325 1 -0.056882 -0.0195302 -0.0383059 0.000423 -3.4806 -0.118556 5.18718 2650 
3963 1 -0.0575329 -0.0256484 -0.0373179 0.000423 -3.52182 -0.0514788 5.48646 2650 
1640 1 -0.0582055 -0.00625222 -0.0369731 4.2e-05 -1.76245 -0.125069 2.8152 2650 
1378 1 -0.0582896 -0.00100979 -0.0367049 0.000116 -3.55885 -0.170192 5.63237 2650 
3393 1 -0.0180749 -0.00698633 -0.0356392 4.2e-05 -2.62354 -0.34424 -5.37003 2650 
4204 1 -0.0591123 -0.0292103 -0.0347364 0.000423 -3.21434 0.345712 5.48246 2650 
338 1 -0.0586819 -0.00786786 -0.0350192 0.000656 -3.5188 -0.0101082 5.81776 2650 
625 1 -0.0596172 -0.0304805 -0.0345035 0.000116 -3.06331 0.850935 5.30094 2650 
3339 1 -0.0595594 -0.0261256 -0.0339795 0.000423 -3.06213 0.173702 5.33765 2650 
1784 1 -0.0592042 -0.0266508 -0.0345987 0.000423 -3.1594 0.179146 5.28415 2650 
2083 1 -0.0596285 -0.00153192 -0.0346353 4.2e-05 -2.32339 -0.140224 3.9378 2650 
850 1 -0.0600661 -0.0282848 -0.0337136 0.000116 -3.18627 0.507869 5.65666 2650 
491 1 -0.0598522 -0.0166015 -0.0334729 0.000423 -2.98716 0.241446 5.45865 2650 
1833 1 -0.0600682 -0.0107017 -0.0336942 0.000116 -2.09551 -0.244682 3.69187 2650 
341 1 -0.0598456 -0.0187321 -0.0330065 0.000656 -3.13736 -0.0490823 5.73848 2650 
417 1 -0.0605508 -0.00571759 -0.032822 0.000116 -1.74971 -0.141445 2.87851 2650 
2 1 -0.0605617 -0.0182228 -0.031666 0.000656 -3.00341 -0.120891 5.72387 2650 
1436 1 -0.0602748 -0.0166181 -0.0322027 0.000656 -3.03203 -0.0830537 5.68513 2650 
2062 1 -0.0610828 -0.00595089 -0.0317825 0.000116 -1.55966 -0.127291 2.90824 2650 
1593 1 -0.0609497 -0.0301282 -0.0314071 0.000423 -3.039 -0.0250322 5.8682 2650 
1407 1 -0.0599619 -0.0215867 -0.0313681 0.000116 -5.21433 -0.931817 7.25519 2650 
2186 1 -3.96412e-05 -0.00549624 -0.0688841 0.000116 -4.51885 -0.37205 -0.0107499 2650 
2605 1 -0.0618849 -0.0177642 -0.0302352 0.000116 -2.9538 0.0162801 6.09184 2650 
3707 1 -7.49361e-05 -0.00597583 -0.068884 0.000116 -4.00007 -0.0832904 0.021878 2650 
1740 1 -0.0622838 -0.0388901 -0.0294219 0.000116 -2.28937 0.0360143 4.78815 2650 
2421 1 -0.0615944 -0.0327866 -0.0296063 0.000656 -2.87202 -0.143529 6.18692 2650 
2198 1 -0.0624453 -0.0306967 -0.0292507 4.2e-05 -2.68289 -0.0383858 5.71414 2650 
3155 1 -0.0623388 -0.0156946 -0.0293041 0.000116 -2.97161 0.103593 6.29783 2650 
2832 1 -0.06313 -0.0255276 -0.02756 0.000116 -1.92201 -1.67596 4.38786 2650 
1987 1 -0.0622927 -0.0137678 -0.02812 0.000656 -1.84824 -0.175641 4.06647 2650 
1157 1 -0.0628227 -0.00766078 -0.0282544 0.000116 -2.87362 -0.0855488 6.37221 2650 
2048 1 -0.0636345 -0.0268727 -0.0263744 0.000116 -2.59892 -0.970071 6.28893 2650 
3005 1 -0.063248 -0.0224126 -0.0265072 0.000423 -2.29044 0.275257 5.4439 2650 
4069 1 -0.0641065 -0.0266586 -0.0243579 0.000423 -2.30783 -0.0493659 6.12714 2650 
2340 1 -0.0639367 -0.0249502 -0.0247994 0.000423 -2.74261 -0.403438 7.00832 2650 
1185 1 -0.0644764 -0.00446413 -0.0242453 0.000116 -2.10734 -0.0667574 5.60113 2650 
4305 1 -0.0641794 -0.00382469 -0.0241641 0.000423 -2.0582 -0.152863 5.4847 2650 
223 1 -0.0639105 -0.00171544 -0.0242216 0.000656 -2.83379 -0.0701429 7.39517 2650 
2765 1 -0.0644177 -0.0335585 -0.0235233 0.000423 -2.28269 -0.034343 6.23091 2650 
2672 1 -0.0645258 -0.0161782 -0.0232242 0.000423 -1.6755 0.0893277 4.76198 2650 
390 1 -0.0651161 -0.0340084 -0.0224703 0.000116 -1.75229 0.414582 5.073 2650 
3337 1 -0.0648615 -0.0179633 -0.022267 0.000423 -1.69557 -0.0319149 4.92996 2650 
3986 1 -0.0648036 -0.0143329 -0.0224371 0.000423 -1.62146 0.0447851 4.69937 2650 
306 1 -0.0650423 -0.000291892 -0.0226828 0.000116 -2.27033 0.0650126 6.51902 2650 
3580 1 -0.065658 -0.0359866 -0.0208336 0.000116 -1.99213 -0.581624 6.33092 2650 
2386 1 -0.0657127 -0.0188289 -0.020659 0.000116 -1.3663 -0.233411 4.31372 2650 
1723 1 -0.0657405 -0.0142268 -0.0205707 0.000116 -1.29271 -0.540798 4.11309 2650 
1180 1 -0.0655601 -0.000853618 -0.0211396 0.000116 -1.83189 -0.0109867 5.6542 2650 
2738 1 -0.0659865 -0.0160727 -0.020024 4.2e-05 -1.34069 0.0179691 4.38776 2650 
3626 1 -0.0653421 -0.0112029 -0.0200414 0.000656 -1.06707 -0.287764 3.60951 2650 
3779 1 -0.0658106 -0.0361083 -0.0192829 0.000423 -2.09946 0.0566834 7.15213 2650 
574 1 -0.0658269 -0.0203608 -0.0192324 0.000423 -1.52496 -0.0743914 5.21227 2650 
814 1 -0.0659971 -0.0209355 -0.0186352 0.000423 -1.38266 -0.415032 4.91538 2650 
3304 1 -0.0661669 -0.0229929 -0.0180228 0.000423 -1.20503 -0.447741 4.43942 2650 
2827 1 -0.00810246 -0.00358062 -0.0178368 0.000116 -0.807686 -0.072991 -1.77325 2650 
1447 1 -0.0664905 -0.0269672 -0.0167916 0.000423 -1.582 0.0999508 6.21091 2650 
4213 1 -0.066433 -0.0246283 -0.0170143 0.000423 -1.56375 0.0339093 6.03341 2650 
3785 1 -0.0667765 -0.0208323 -0.0169085 0.000116 -1.39371 0.396589 5.49653 2650 
3586 1 -0.0668696 -0.0101935 -0.0165389 0.000116 -1.16382 -0.262903 4.77074 2650 
91 1 -0.066842 -0.00140429 -0.0166473 0.000116 -1.96097 0.0421677 7.86449 2650 
606 1 -0.000183 0.00216502 -0.016592 0.000116 0 -0.011753 0 2650 
2520 1 -0.000345812 0.00481489 -0.0166356 4.2e-05 -0.0125271 0.0201098 0.013978 2650 
2172 1 -0.00298419 -0.00137551 -0.0163632 0.000116 0.0682862 0.00746542 -0.00852403 2650 
30 1 -0.00114304 -0.000603593 -0.016057 0.000423 -0.0136125 -0.0214967 0.00834717 2650 
2013 1 -0.0028852 0.00293495 -0.0159837 0.000423 -0.00154235 0.00221798 0.00156406 2650 
2301 1 -0.004222 0.00393802 -0.016305 4.2e-05 0 -0.011753 0 2650 
1679 1 -0.00392896 0.00375862 -0.0159636 0.000423 -0.00453729 0.0157155 0.00260015 2650 
2283 1 -0.00352188 0.00378394 -0.0164382 0.000116 -0.00010552 0.00956354 0.000789399 2650 
3121 1 -0.000729681 0.0051713 -0.016198 0.000423 0.0292552 0.00121421 5.81941e-05 2650 
978 1 -0.00352622 0.00652466 -0.0163046 0.000116 0.0180122 -0.00353228 -0.00159853 2650 
3934 1 -0.001977 0.00692702 -0.016218 0.000116 0 -0.011753 0 2650 
3177 1 -0.000410849 0.00869178 -0.0158892 4.2e-05 0.00917698 -0.00185525 -0.00666376 2650 
289 1 -0.00287252 0.00971063 -0.0158001 0.000116 -0.00850769 0.000708308 0.0302001 2650 
1483 1 -0.000395511 0.00962497 -0.0159553 0.000423 -0.00134867 0.0112238 -0.0085204 2650 
3007 1 -0.00243706 0.0109809 -0.0162896 0.000423 -0.0135196 -0.00505473 -0.0280609 2650 
3500 1 -0.00157407 0.0107803 -0.015934 4.2e-05 -0.0454796 -0.00333034 0.0313479 2650 
371 1 -0.000533937 0.0104934 -0.0158724 0.000423 -0.00202239 0.0122439 -0.00806147 2650 
188 1 -0.00195851 0.0116938 -0.0164676 0.000116 -0.0148612 0.0228045 0.00418427 2650 
3644 1 -0.00115299 0.012892 -0.0158985 0.000423 -0.000399523 0.00418678 0.0157329 2650 
2713 1 -0.000733067 0.0129841 -0.0163356 0.000116 0.00037122 0.035974 0.00535071 2650 
2924 1 -0.00504547 0.0140797 -0.0159714 0.000116 -0.059039 0.0353164 0.00422158 2650 
2179 1 -0.00273758 0.0229966 -0.0164801 0.000116 -0.892132 -0.193779 0.155833 2650 
148 1 -0.00468412 0.0326059 -0.0158453 0.000423 -0.145516 -0.155086 0.0592808 2650 
4010 1 -0.00484445 0.0389847 -0.0158911 0.000116 -0.0944465 0.099748 0.0197066 2650 
416 1 -0.067076 -0.0163962 -0.015672 0.000116 -0.970349 -0.614962 4.21702 2650 
1282 1 -0.0671769 -0.0149744 -0.0152391 0.000116 -1.14101 -0.144157 4.8713 2650 
509 1 -0.00744929 -0.000196364 -0.0150906 0.000116 -0.00480979 -0.0076817 0.0108723 2650 
736 1 -0.00612822 -0.00037405 -0.015346 0.000116 -0.0307431 -0.0170391 0.0144389 2650 
2399 1 -0.002418 0.00237902 -0.015541 0.000116 0 -0.011753 0 2650 
3637 1 -0.00476456 0.00325683 -0.0156227 0.000423 -0.0121297 0.0118194 -0.00377228 2650 
2438 1 -0.00585477 0.00727006 -0.0150529 0.000423 -0.00468347 -0.000292455 -0.00123863 2650 
3830 1 -0.006879 0.00847902 -0.015411 4.2e-05 0 -0.011753 0 2650 
233 1 -0.0042246 0.00918055 -0.0152383 0.000423 0.0114684 -0.00558491 0.0116559 2650 
2793 1 -0.000765594 0.00947015 -0.0151619 0.000423 0.0113251 0.0911454 -0.00570485 2650 
2969 1 -0.00207571 0.00970647 -0.0150948 0.000656 -0.00775713 0.0181674 -1.8219e-05 2650 
938 1 -0.00143251 0.00988666 -0.0155216 0.000116 -0.00119823 0.000558801 -0.00633771 2650 
1839 1 -0.0014784 0.0145877 -0.0151855 0.000116 -0.0676852 0.0211351 0.0188737 2650 
2585 1 -4.89167e-05 0.0214062 -0.0155544 0.000116 -0.0221426 0.0759057 0.0070692 2650 
3279 1 -0.0012379 0.0454451 -0.015325 0.000116 0.0698602 -0.118112 -0.0910458 2650 
945 1 -0.00603516 0.0494179 -0.0155013 0.000116 -0.192436 -0.107086 0.0844573 2650 
269 1 -0.000463637 -0.00323618 -0.0144036 0.000423 -0.0067037 -0.0325502 -0.00931701 2650 
2666 1 -0.00584544 -0.00250946 -0.0143071 0.000423 0.0429038 -0.00888448 0.00629481 2650 
1053 1 -0.007469 -0.00146298 -0.014946 0.000116 0 -0.011753 0 2650 
1991 1 -0.00686879 0.000345745 -0.0145035 0.000656 -0.019376 -0.00203791 0.00870126 2650 
3239 1 -0.00557345 0.00133224 -0.0146578 0.000116 -0.0248133 -0.00752354 0.0120924 2650 
857 1 -0.00243351 0.00181883 -0.0149513 0.000116 -0.0623021 0.0193526 0.00200378 2650 
220 1 -0.00346564 0.00315035 -0.0142729 4.2e-05 0.00197382 0.00663681 0.00671825 2650 
1388 1 -0.00426719 0.00539318 -0.0145216 0.000116 -0.039288 0.0021603 0.0169103 2650 
3365 1 -0.002315 0.00480502 -0.014552 0.000116 0 -0.011753 0 2650 
4227 1 -0.000552038 0.00526219 -0.0149927 0.000116 0.00143204 -0.0228975 -0.0290312 2650 
1611 1 -0.00476617 0.00559267 -0.014483 0.000116 0.0134772 -0.0209987 -0.0751807 2650 
2313 1 -0.00386477 0.00781756 -0.0142487 0.000656 0.0121795 0.0249345 0.010824 2650 
581 1 -0.00563541 0.00802138 -0.0145893 0.000423 0.000441693 0.00100922 0.00165067 2650 
2092 1 -0.00665022 0.00912645 -0.0147749 0.000656 -0.00167296 0.00263094 0.0238503 2650 
86 1 -0.00343059 0.00988197 -0.0149993 0.000116 -0.0196067 0.0126222 0.000798653 2650 
1617 1 -0.000966754 0.0100742 -0.0149642 0.000116 0.0304013 0.00375314 0.0183235 2650 
3669 1 -3.26725e-05 0.0101111 -0.0148662 0.000423 0.00311727 -0.00583333 -0.00141597 2650 
2182 1 -0.000598996 0.0108254 -0.0143347 0.000116 -0.0273815 0.022445 -0.0411396 2650 
1228 1 -0.00165842 0.0113009 -0.0149691 0.000423 -0.0026547 0.0243513 0.000515369 2650 
4231 1 -0.00118818 0.0178683 -0.0146598 0.000116 -0.0134934 0.0153003 0.0304581 2650 
2021 1 -0.00604842 0.0545821 -0.014891 0.000423 0.132959 -0.0939981 -0.0898992 2650 
2745 1 -0.067617 -0.0314352 -0.0135185 4.2e-05 -1.32073 -0.871718 6.42511 2650 
1716 1 -0.0661431 -0.0193317 -0.013809 0.000116 -2.85695 0.625604 6.19359 2650 
623 1 -0.00758934 -0.000172916 -0.0134488 0.000116 -0.0192086 -0.00896372 0.0230222 2650 
2332 1 -0.00526661 -0.00051265 -0.0136331 0.000423 -0.0114447 -0.00779769 0.00753018 2650 
2922 1 -0.00736834 0.00138525 -0.0138612 0.000116 -0.00925852 -0.000802711 0.00675368 2650 
676 1 -0.00450944 0.00231569 -0.0134555 0.000423 -0.0128147 0.00889048 0.0204924 2650 
2512 1 -0.00795195 0.0027313 -0.0134773 0.000116 0.018779 -0.0192413 0.00230208 2650 
150 1 -0.00787573 0.00302019 -0.0141885 0.000423 -0.0542472 0.016714 0.0257745 2650 
3587 1 -0.00826433 0.00353985 -0.0138307 0.000116 -0.0579635 0.0255056 0.0285778 2650 
1032 1 -0.00582707 0.00320981 -0.013455 0.000423 0.0299121 -0.00820922 0.0127278 2650 
1684 1 -0.000124065 0.00326115 -0.0137617 0.000423 -0.00348729 -0.0115683 0.00145358 2650 
2913 1 -0.00895699 0.00485648 -0.0137459 0.000116 -0.0140945 -0.0228944 -0.00540615 2650 
1192 1 -0.0065487 0.0051485 -0.0139875 0.000116 -0.0160738 0.0171838 -0.0228619 2650 
2344 1 -0.000435875 0.00531117 -0.0140764 0.000423 0.00575909 -0.0231993 -0.0217047 2650 
2322 1 -0.00896984 0.00620543 -0.0135137 0.000656 -0.00300304 -0.0136032 0.00411571 2650 
2918 1 -0.00725547 0.00620749 -0.0139116 0.000116 0.0149777 0.0131491 0.0124233 2650 
1288 1 -0.002467 0.00610802 -0.014044 0.000116 0 -0.011753 0 2650 
3515 1 -0.00805326 0.00703273 -0.0139572 0.000656 -0.00926084 -0.0087238 -0.000857651 2650 
963 1 -0.0070582 0.00707683 -0.0139787 0.000116 0.00350227 -0.00324664 0.0156587 2650 
1618 1 -0.00996807 0.00746045 -0.0135403 0.000116 0.0059414 0.00192455 -0.00369393 2650 
1250 1 -0.00857342 0.00787402 -0.0134335 0.000423 -0.00730125 -0.00574558 -0.000431452 2650 
4257 1 -0.00794258 0.00788084 -0.0135276 0.000116 -0.00578911 -0.00907208 0.00958653 2650 
2222 1 -0.000752694 0.00770346 -0.0137525 0.000423 0.00109584 0.00172293 0.0219135 2650 
1769 1 -0.00755735 0.00856091 -0.0140113 0.000656 -0.0177486 -0.00836892 0.0021466 2650 
1237 1 -0.00933 0.00900478 -0.0134864 0.000423 0.00205875 0.0105454 -1.45263e-05 2650 
4190 1 -0.00860531 0.00884667 -0.0140469 0.000423 -0.0108251 0.00653221 0.00770144 2650 
1476 1 -0.00723954 0.00990706 -0.0134359 0.000423 -0.00473027 0.00118609 -0.000138689 2650 
1827 1 -0.00657684 0.0100763 -0.013753 0.000116 0.0445821 -0.0304485 -0.00868089 2650 
1409 1 -0.00044 0.00988802 -0.013868 0.000116 0 -0.011753 0 2650 
70 1 -0.00670586 0.0105832 -0.0139523 0.000116 0.0420474 0.0335815 -0.0676972 2650 
2781 1 -0.00600584 0.0104205 -0.0139861 0.000423 -0.00287998 0.011096 -0.0317373 2650 
3150 1 -0.000734313 0.0108089 -0.0137112 0.000116 -0.0182263 -0.0087302 -0.0269448 2650 
3163 1 -0.0077902 0.0123375 -0.0136884 0.000116 -0.0370466 0.0283549 -0.0433006 2650 
2466 1 -0.00763966 0.0199221 -0.0141238 0.000423 0.048327 0.0396991 -0.0547289 2650 
1195 1 -0.00760663 0.0286655 -0.0138313 0.000116 0.0557766 0.0782116 -0.0138054 2650 
4234 1 -0.00412097 0.0293321 -0.0136957 0.000116 -0.0277623 0.0670651 -0.0707711 2650 
2084 1 -0.00996849 0.0314068 -0.0136583 4.2e-05 0.264644 0.101196 -0.228625 2650 
2643 1 -0.00641824 0.0310976 -0.0136604 0.000656 -0.0823633 0.0688822 0.0201377 2650 
1124 1 -0.00316457 0.0360461 -0.0136512 0.000423 0.115227 0.0704534 -0.0460588 2650 
2530 1 -0.00930579 -0.00478439 -0.0130636 0.000656 -0.271087 -0.542737 -0.269047 2650 
4097 1 -0.00762597 -0.00311472 -0.0131193 0.000423 0.0222564 -0.0142204 -0.0225559 2650 
3576 1 -0.00517597 -0.00148372 -0.0129426 0.000116 0.0561059 0.00120064 -0.0311085 2650 
3599 1 -0.00169205 -0.00121892 -0.0133362 0.000116 0.00758272 -0.00512374 -0.0536854 2650 
3191 1 -0.00879178 -0.000355906 -0.0127216 0.000656 -0.0188132 -0.00808236 -0.00669482 2650 
2525 1 -0.004063 0.000335019 -0.013231 4.2e-05 0 -0.011753 0 2650 
4126 1 -0.00698431 0.000844281 -0.0129231 0.000116 -0.0261531 0.0084042 0.00402279 2650 
2619 1 -0.00592594 0.00110401 -0.0128252 0.000116 -0.0137973 -0.0204082 0.00531131 2650 
4165 1 -0.0052119 0.00137537 -0.0130251 0.000656 -0.00295906 -0.0330191 0.0101422 2650 
3880 1 -0.0103207 0.00209684 -0.0129254 0.000423 -0.0020648 -0.00583391 0.00454369 2650 
2609 1 -0.00886 0.00187502 -0.013248 0.000116 0 -0.011753 0 2650 
3917 1 -0.003984 0.00263602 -0.012703 0.000116 0 -0.011753 0 2650 
2059 1 -0.003583 0.00284502 -0.012756 0.000116 0 -0.011753 0 2650 
2474 1 -0.00213616 0.00304757 -0.0128715 0.000423 0.0307748 -0.0136667 -0.043701 2650 
3316 1 -0.00938815 0.00328449 -0.0130356 0.000423 -0.00544519 -0.0183171 -0.00879554 2650 
1171 1 -0.00759448 0.00327085 -0.0130684 0.000116 0.0131753 -0.0110464 0.0150896 2650 
4300 1 -0.000881257 0.00339112 -0.0130767 0.000423 0.0464595 0.0171624 -0.0680193 2650 
3787 1 -0.00664793 0.00415259 -0.012968 0.000116 -0.0024271 -0.00223267 -0.0195234 2650 
3446 1 -0.00124796 0.00435097 -0.0129206 0.000423 0.014297 -0.016402 -0.00312272 2650 
1427 1 -0.002948 0.00517602 -0.013376 4.2e-05 0 -0.011753 0 2650 
3362 1 -0.00263113 0.00486824 -0.0126701 0.000116 0.000350619 -0.00253681 -0.00404217 2650 
2912 1 -0.00546004 0.00604934 -0.0131447 0.000116 0.00196064 0.0151142 0.00117299 2650 
445 1 -0.0100242 0.00706212 -0.0128565 0.000656 -0.00148386 -0.000427463 0.00552151 2650 
3259 1 -0.00886957 0.00674047 -0.0127362 0.000116 0.00136236 -0.0113258 0.00321419 2650 
4179 1 -0.00785832 0.00680387 -0.0129056 0.000423 -0.0070231 -0.0226882 -0.00131956 2650 
1795 1 -0.00897839 0.00745232 -0.0127554 0.000423 -0.00333027 -0.00705618 0.0037936 2650 