ITEM: TIMESTEP
5960496
ITEM: NUMBER OF ATOMS
4367
ITEM: BOX BOUNDS ff ff ff
-0.15 0.15
-0.15 0.06
-0.15 0.15
ITEM: ATOMS id type x y z radius vx vy vz density 
3779 1 -0.00215172 -0.0469873 -0.0685449 0.000423 -4.59693 -0.233994 0.137529 2650 
2274 1 -0.020097 -0.050035 -0.0658747 0.000116 -3.69668 0.360155 1.2453 2650 
3957 1 -0.022841 -0.0464913 -0.0644162 0.000656 -5.60738 0.133161 1.97735 2650 
2256 1 -0.0296796 -0.0486054 -0.0621622 0.000116 -4.51163 0.174539 2.17331 2650 
1856 1 -0.0367802 -0.0525448 -0.0582354 0.000116 -4.07932 -0.261355 2.57295 2650 
482 1 -0.0414595 -0.0564603 -0.0546233 0.000423 -4.39098 -0.156235 3.46227 2650 
2833 1 -0.0539801 -0.0466565 -0.0427897 0.000116 -2.885 0.577616 3.5604 2650 
2487 1 -0.0551388 -0.0456481 -0.0412843 0.000116 -3.22683 -0.284611 4.27398 2650 
3945 1 -0.0616988 -0.0463451 -0.0307969 4.2e-05 -4.18984 0.211167 8.38888 2650 
2314 1 -0.0679274 -0.0497122 -0.00748088 0.000656 -0.578378 0.50907 5.53975 2650 
2703 1 -0.0682091 -0.0486648 0.00961312 0.000116 0.831677 -0.982067 5.5709 2650 
2317 1 -0.0651807 -0.0466247 0.0205628 0.000656 2.12303 0.0776533 6.73904 2650 
3426 1 -0.0295615 -0.0611611 0.0618798 0.000423 4.11602 -0.168543 1.96722 2650 
1275 1 -0.000575348 -0.0308131 -0.0688376 0.000116 -4.89907 -0.0114619 0.0696803 2650 
625 1 -0.000493773 -0.023994 -0.0688768 0.000116 -6.40508 0.459769 0.00979887 2650 
404 1 -0.003543 -0.0221248 -0.0687925 0.000116 -6.44289 -0.252467 0.326595 2650 
831 1 -0.00120578 -0.0207341 -0.0688734 0.000116 -6.76026 0.231213 0.124483 2650 
3260 1 -0.000798966 -0.0203169 -0.0688794 0.000116 -3.80777 -0.194185 0.0530991 2650 
3314 1 -0.00571872 -0.0319472 -0.0683373 0.000423 -5.86993 0.355798 0.476067 2650 
1130 1 -0.00202798 -0.00550226 -0.0685446 0.000423 -4.2747 -0.0123513 0.0364551 2650 
981 1 -0.0125521 -0.0393198 -0.0678056 4.2e-05 -3.25175 0.0665057 0.604876 2650 
2367 1 -0.0155249 -0.0231284 -0.0671116 0.000116 -5.32007 0.35216 1.24088 2650 
4325 1 -0.0106456 -0.0228357 -0.0677463 0.000423 -6.00264 0.028578 0.952991 2650 
2501 1 -0.0141008 -0.0110924 -0.0674259 0.000116 -4.38671 -0.224952 0.932651 2650 
588 1 -0.0128819 -0.011179 -0.0673578 0.000423 -4.2726 -0.30089 0.802078 2650 
1863 1 -0.0139168 -0.0106729 -0.0675397 4.2e-05 -3.2781 -0.20514 0.670298 2650 
1317 1 -0.013637 -0.00546817 -0.0675962 4.2e-05 -3.20825 -0.106683 0.630079 2650 
2251 1 -0.0166957 -0.039496 -0.0665142 0.000423 -5.13414 -0.191795 1.30623 2650 
1256 1 -0.0174228 -0.0347026 -0.0663276 0.000423 -3.81803 -1.22115 0.981975 2650 
15 1 -0.0173139 -0.00718542 -0.0663333 0.000423 -3.4205 -0.599524 0.603518 2650 
2189 1 -0.0201663 -0.0161717 -0.0659426 4.2e-05 -6.01013 -0.362868 1.83276 2650 
1417 1 -0.0202604 -0.0143146 -0.0658369 0.000116 -4.89893 0.0420137 1.50028 2650 
1407 1 -0.0231139 -0.0321857 -0.0648898 0.000116 -4.55609 0.110911 1.64728 2650 
1753 1 -0.0235538 -0.0279777 -0.0648106 4.2e-05 -6.22721 -0.51968 2.25093 2650 
4376 1 -0.0217203 -0.0185846 -0.0654439 4.2e-05 -3.33322 -0.17285 0.992929 2650 
4264 1 -0.0229058 -0.00898998 -0.0650254 4.2e-05 -3.98947 -0.0322834 1.40927 2650 
1752 1 -0.0227288 -0.00508267 -0.0650915 4.2e-05 -3.07548 -0.111693 0.972138 2650 
3073 1 -0.0239481 -0.0331789 -0.0646667 4.2e-05 -3.75108 -0.485013 1.54736 2650 
2028 1 -0.0237682 -0.0329168 -0.0643278 0.000423 -4.40012 -0.0705675 1.62157 2650 
670 1 -0.0231304 -0.0186123 -0.0643117 0.000656 -4.68099 0.139095 1.61414 2650 
2544 1 -0.0226927 -0.0170707 -0.0647057 0.000423 -4.69943 0.245827 1.66187 2650 
1593 1 -0.0244294 -0.0158838 -0.0640725 0.000423 -5.44937 0.168425 2.08199 2650 
2055 1 -0.023709 -0.00818924 -0.0646495 0.000116 -6.3312 -0.033905 2.31998 2650 
2765 1 -0.0261462 -0.0397848 -0.0633976 0.000423 -4.64285 -0.254492 1.95538 2650 
3351 1 -0.0273693 -0.00836494 -0.0631989 0.000116 -3.00643 -0.189178 1.28956 2650 
3256 1 -0.0174523 -0.00793306 -0.0633019 0.000116 -2.98156 -0.256181 0.711408 2650 
2527 1 -0.0265775 -0.0001714 -0.0636302 4.2e-05 -4.65064 -0.031611 1.94643 2650 
2788 1 -0.0265497 -0.00047671 -0.06323 0.000423 -5.9763 -0.0100477 2.53358 2650 
3989 1 -0.0281707 -0.017693 -0.0625247 0.000423 -4.3824 -0.206658 1.96599 2650 
1500 1 -0.0281554 -0.0158958 -0.062866 0.000116 -3.04535 -0.55768 1.37337 2650 
3725 1 -0.0291911 -0.0125934 -0.0624728 4.2e-05 -3.05309 -0.2087 1.41016 2650 
443 1 -0.0284787 -0.0246509 -0.0621314 0.000656 -5.34181 0.011272 2.43813 2650 
2954 1 -0.0302448 -0.000116968 -0.0618889 0.000116 -5.95529 -0.00124947 2.90522 2650 
1961 1 -0.0300575 -0.000224493 -0.0619801 0.000116 -5.98029 -0.0545635 2.89852 2650 
4360 1 -0.0298483 -0.00019828 -0.0620811 0.000116 -5.9908 -0.00957469 2.87415 2650 
2563 1 -0.0290826 -0.00052593 -0.0621054 0.000423 -5.89783 -0.0353707 2.75715 2650 
816 1 -0.0309761 -0.0347897 -0.0611844 0.000423 -5.37853 -0.0329806 2.73685 2650 
1781 1 -0.0315412 -0.0325313 -0.0608949 0.000423 -4.82069 0.38367 2.49446 2650 
4069 1 -0.032099 -0.0253244 -0.0606013 0.000423 -4.75927 -0.463404 2.47985 2650 
3881 1 -0.0328317 -0.0244051 -0.0602072 0.000423 -5.26476 -0.432314 2.85321 2650 
2 1 -0.0320065 -0.0219607 -0.0603883 0.000656 -4.62424 0.30596 2.46972 2650 
3649 1 -0.0322883 -0.0186058 -0.0605014 0.000423 -4.61589 0.0702632 2.48246 2650 
3671 1 -0.0330344 -0.0173533 -0.0600966 0.000423 -4.44412 0.0318656 2.4198 2650 
4132 1 -0.0344274 -0.0183788 -0.0596636 0.000116 -3.32578 -0.251249 1.94243 2650 
1924 1 -0.0346558 -0.0163363 -0.0591766 0.000423 -4.17169 -0.177888 2.46102 2650 
2593 1 -0.0357953 -0.0156449 -0.0588533 0.000116 -4.00275 -0.507607 2.42986 2650 
4068 1 -0.035362 -0.0150531 -0.0587584 0.000423 -4.12911 -0.0344224 2.48905 2650 
1203 1 -0.0376575 -0.0300156 -0.0577604 4.2e-05 -4.27217 -0.0811773 2.71851 2650 
2048 1 -0.0376622 -0.0253202 -0.0576722 0.000116 -4.6924 -0.685845 3.03811 2650 
1447 1 -0.0372889 -0.0280432 -0.0575452 0.000423 -4.60867 -0.0827957 3.00013 2650 
2691 1 -0.0376367 -0.0267274 -0.0573135 0.000423 -4.4796 -0.250023 2.98672 2650 
3891 1 -0.0376622 -0.00765803 -0.0573105 0.000423 -3.25434 -0.0326842 2.14339 2650 
4353 1 -0.0396634 -0.018762 -0.0563186 0.000116 -5.89121 -0.255053 4.15952 2650 
575 1 -0.0400964 -0.0260833 -0.0556127 0.000423 -4.5035 -0.372758 3.28023 2650 
681 1 -0.0405849 -0.0221301 -0.0552718 0.000423 -4.54129 -0.0961333 3.29572 2650 
4213 1 -0.0413929 -0.0216818 -0.0546717 0.000423 -4.41862 -0.069259 3.4616 2650 
2404 1 -0.0419618 -0.0212479 -0.0546269 0.000116 -4.42646 0.432917 3.37628 2650 
1952 1 -0.0429943 -0.010917 -0.0538187 0.000116 -3.78688 0.287804 3.0114 2650 
4019 1 -0.0436578 -0.0146805 -0.0532823 0.000116 -3.14795 0.218397 2.5945 2650 
3718 1 -0.0448065 -0.0327448 -0.0524168 4.2e-05 -3.6523 -0.199308 3.13614 2650 
3688 1 -0.0448123 -0.0266318 -0.0523152 0.000116 -4.08778 -0.204376 3.49185 2650 
3055 1 -0.0451161 -0.0273834 -0.0520532 0.000116 -3.68222 -0.0588609 3.20356 2650 
2186 1 -0.0451427 -0.00995075 -0.0520304 0.000116 -3.56598 0.210919 3.09166 2650 
1364 1 -0.00214013 -0.00699201 -0.0517949 0.000423 -0.346144 -0.336644 -7.7064 2650 
3815 1 -0.0462629 -0.0118811 -0.0510371 0.000116 -2.39725 -0.230218 2.24161 2650 
341 1 -0.046288 -0.0282773 -0.0502857 0.000656 -3.40577 -0.0381148 3.14077 2650 
1180 1 -0.0474558 -0.0090672 -0.0499304 0.000116 -4.44284 -0.0187211 4.21981 2650 
1335 1 -0.0479593 -0.0181868 -0.0490181 0.000423 -3.55179 -0.0256487 3.48223 2650 
3570 1 -0.0489356 -0.0197402 -0.0484799 0.000116 -3.92324 0.501757 3.97454 2650 
1169 1 -0.0418053 -0.00418135 -0.0468342 0.000116 -6.45594 -0.104427 -7.23255 2650 
4204 1 -0.050619 -0.00991639 -0.0462684 0.000423 -2.88974 -0.424823 3.10322 2650 
1798 1 -0.0509878 -0.0078926 -0.0458614 0.000423 -3.17816 0.204079 3.55579 2650 
1157 1 -0.0519492 -0.0146899 -0.0452356 0.000116 -2.29143 -0.237591 2.58149 2650 
3353 1 -0.0528088 -0.0261389 -0.0442282 0.000116 -4.4637 -0.701781 5.30692 2650 
2296 1 -0.0535971 -0.00449069 -0.0432667 0.000116 -3.06592 0.531023 3.84415 2650 
1832 1 -0.0540911 -0.000116042 -0.0426515 0.000116 -2.87015 0.000317819 3.61824 2650 
200 1 -0.0546907 -0.0340222 -0.0418671 0.000116 -3.98806 -0.427308 5.20533 2650 
3018 1 -0.0542142 -0.0276897 -0.0419889 0.000423 -3.10225 0.0871258 3.98111 2650 
1210 1 -0.0543723 -0.0123392 -0.042396 4.2e-05 -2.04135 -0.264839 2.51221 2650 
1956 1 -0.0543345 -0.0110087 -0.0423318 0.000116 -2.98576 0.311517 3.77986 2650 
1784 1 -0.0554501 -0.0110612 -0.0403369 0.000423 -2.86491 0.313395 4.03558 2650 
2732 1 -0.0564016 -0.0348144 -0.0395029 0.000116 -3.3162 -0.299084 4.63299 2650 
1520 1 -0.0563089 -0.0258642 -0.0396559 0.000116 -4.10179 0.0789649 5.74867 2650 
167 1 -0.0503017 -0.0203885 -0.0371856 0.000116 -2.82038 0.294388 7.49324 2650 
3381 1 -0.05832 -0.0167139 -0.0366552 0.000116 -2.15653 -0.151839 3.44143 2650 
2966 1 -0.058687 -0.0300432 -0.0350277 0.000656 -2.96888 0.0303614 5.02286 2650 
615 1 -0.059419 -0.000116022 -0.0348478 0.000116 -2.58843 0.00149122 4.42715 2650 
1042 1 -0.0595935 -0.0387018 -0.0339342 0.000423 -2.65208 -0.0797926 4.67574 2650 
3196 1 -0.059419 -0.0140371 -0.0342368 0.000423 -1.61773 -0.440387 2.81423 2650 
2074 1 -0.0598144 -0.00156201 -0.0341651 0.000116 -2.00238 -0.0873715 3.4929 2650 
2612 1 -0.0619353 -0.0212845 -0.0301502 0.000116 -2.67188 0.179242 5.45567 2650 
3339 1 -0.0614518 -0.0125416 -0.0304416 0.000423 -2.02541 -0.280733 4.13045 2650 
3088 1 -0.0618677 -0.033365 -0.0295879 0.000423 -2.46405 0.207929 5.19914 2650 
323 1 -0.0623644 -0.0268108 -0.0294265 4.2e-05 -3.869 -0.370646 8.18652 2650 
2051 1 -0.0621498 -0.0113999 -0.0297072 0.000116 -2.11651 0.62687 4.36058 2650 
850 1 -0.0628278 -0.0223359 -0.0282422 0.000116 -1.84908 0.263071 4.12027 2650 
2745 1 -0.0631837 -0.0145518 -0.0276227 4.2e-05 -1.97614 0.302706 4.51 2650 
902 1 -0.0633121 -0.0361168 -0.0263531 0.000423 -2.21363 -0.337685 5.28253 2650 
491 1 -0.0633863 -0.0124299 -0.0261756 0.000423 -1.54802 -0.168855 3.74796 2650 
4338 1 -0.0637444 -0.00886369 -0.0261108 0.000116 -1.55183 -0.0937286 3.78075 2650 
83 1 -0.0637321 -0.00665539 -0.0261402 0.000116 -2.01914 -0.597729 4.81949 2650 
579 1 -0.0633496 -0.00288132 -0.0262616 0.000423 -1.87735 -0.119452 4.58655 2650 
2911 1 -0.0635454 -0.0243549 -0.025785 0.000423 -2.42473 -0.309266 5.99449 2650 
4305 1 -0.0634781 -0.00509187 -0.0259518 0.000423 -1.88249 -0.0710843 4.67559 2650 
528 1 -0.0643129 -0.00652336 -0.0246735 0.000116 -1.85326 -0.169365 4.83345 2650 
3840 1 -0.064226 -0.0406714 -0.0233687 0.000656 -2.12907 -0.150705 5.87219 2650 
2052 1 -0.0651678 -0.0165234 -0.0223152 0.000116 -1.09653 -0.208535 3.16237 2650 
3502 1 -0.0655809 -0.00697949 -0.0213078 4.2e-05 -0.927195 -0.146518 3.15236 2650 
114 1 -0.06501 -0.0276051 -0.021095 0.000656 -1.79473 -0.170274 5.62893 2650 
379 1 -0.0653551 -0.0240512 -0.0207772 0.000423 -1.74796 0.118319 5.36575 2650 
2023 1 -0.0655179 -0.0301601 -0.0202405 0.000423 -1.72576 -0.0333373 5.4582 2650 
2436 1 -0.0654455 -0.0283599 -0.0204581 0.000423 -1.75242 -0.40458 5.40946 2650 
2350 1 -0.0656352 -0.0244065 -0.0198642 0.000423 -1.58381 0.273819 5.35309 2650 
1072 1 -0.0402773 -0.00471437 -0.0197637 0.000116 -6.30069 -0.131971 -3.09168 2650 
1503 1 -0.0662214 -0.00844998 -0.0189404 0.000116 -1.17366 0.041068 4.27252 2650 
3580 1 -0.066105 -0.00726904 -0.0193276 0.000116 -1.3713 0.35681 4.80151 2650 
689 1 -0.0662123 -0.0324226 -0.0178076 0.000423 -1.74673 0.027303 6.21678 2650 
827 1 -0.0664891 -0.0256062 -0.0180042 0.000116 -1.48244 0.50625 5.05348 2650 
1716 1 -0.0665265 -0.011484 -0.0178152 0.000116 -1.46324 0.404543 5.12375 2650 
2679 1 -0.0664498 -0.0315506 -0.0168619 0.000423 -1.35324 0.108461 5.24278 2650 
3005 1 -0.0663938 -0.0106419 -0.0170856 0.000423 -1.19132 -0.228442 4.47807 2650 
606 1 -0.000183 0.00311468 -0.016592 0.000116 0 -0.011753 0 2650 
3589 1 -0.00047623 0.00580716 -0.0167228 0.000116 0.154771 0.0635836 -0.00686375 2650 
188 1 -0.000755013 0.0098402 -0.0167872 0.000116 -0.0156058 0.0716121 0.00169132 2650 
2713 1 -0.000763 0.0100857 -0.016767 0.000116 0 -0.011753 0 2650 
4037 1 -0.0669461 -0.0402985 -0.0162136 0.000116 -1.34111 -0.962851 5.43917 2650 
1655 1 -0.0664861 -0.0333744 -0.0157651 0.000656 -1.47941 -0.0666645 6.39288 2650 
2680 1 -0.0665469 -0.0156273 -0.0165188 0.000423 -1.04387 -0.204195 4.29499 2650 
736 1 -0.0036197 0.00100746 -0.0164624 0.000116 -0.0354095 -0.0179405 0.00483888 2650 
150 1 -0.00335322 0.00146125 -0.0161207 0.000423 -0.0632838 0.0435722 0.00808514 2650 
2793 1 -0.00200619 0.00164961 -0.0161135 0.000423 0.00849085 0.101984 0.0166858 2650 
1679 1 -0.00363899 0.00258207 -0.0160396 0.000423 -0.000267589 -0.00703629 -0.00433961 2650 
2013 1 -0.00273383 0.00280876 -0.0161167 0.000423 -6.21088e-05 -0.00297451 0.00266081 2650 
2301 1 -0.004222 0.00488768 -0.016305 4.2e-05 0 -0.011753 0 2650 
3121 1 -0.00309355 0.00507319 -0.0162027 0.000423 0.0292552 0.00121421 5.81941e-05 2650 
1388 1 -0.00109266 0.00521862 -0.015888 0.000116 -0.039288 0.0021603 0.0169103 2650 
302 1 -0.000246444 0.00656734 -0.0162251 0.000116 0.0171051 0.0203877 0.0103663 2650 
3934 1 -0.001977 0.00787668 -0.016218 0.000116 0 -0.011753 0 2650 
1617 1 -0.00342323 0.00977098 -0.0164447 0.000116 0.0304013 0.00375314 0.0183235 2650 
2924 1 -0.000275031 0.0112261 -0.0163125 0.000116 -0.059039 0.0353164 0.00422158 2650 
3573 1 -0.00317915 0.0301097 -0.016383 0.000116 0.222562 -0.254179 0.0393607 2650 
1173 1 -0.000571404 0.0348018 -0.0159288 0.000116 -0.136556 0.342033 -0.0293067 2650 
4245 1 -0.00299358 0.0417007 -0.016347 0.000116 -0.131082 0.152483 0.00432583 2650 
1357 1 -0.00247618 0.0515783 -0.0162723 0.000423 0.0681058 0.285169 -0.0155587 2650 
420 1 -0.0671811 -0.0150333 -0.0152099 0.000116 -0.747622 0.166407 3.86813 2650 
3785 1 -0.0671977 -0.0133482 -0.0151368 0.000116 -0.995415 -0.833214 5.29315 2650 
545 1 -0.00233169 -0.00140708 -0.0153101 4.2e-05 -0.000252069 0.0758595 -0.196498 2650 
623 1 -0.00673708 0.000483196 -0.0151591 0.000116 0.0135085 -0.00577665 0.0160157 2650 
1991 1 -0.00528846 0.000515519 -0.0152048 0.000656 -0.0197706 -0.00214867 0.00868857 2650 
3637 1 -0.00381985 0.00228249 -0.0152458 0.000423 -0.00927208 0.0142333 -0.0137243 2650 
3239 1 -0.00347324 0.00178823 -0.0157034 0.000116 -0.046934 0.0296099 0.0330921 2650 
676 1 -0.00266221 0.00189653 -0.0156396 0.000423 -0.0247905 0.00447638 0.0282863 2650 
3043 1 -0.00132613 0.00247832 -0.0154933 0.000116 0.127084 0.0078871 0.090283 2650 
2399 1 -0.002418 0.00332868 -0.015541 0.000116 0 -0.011753 0 2650 
2283 1 -0.00228155 0.00381567 -0.0156611 0.000116 -0.0318858 -0.01081 -0.0228231 2650 
2313 1 -0.00483081 0.00578339 -0.0151182 0.000656 0.00856952 0.0288131 0.00982472 2650 
2438 1 -0.00560879 0.0066633 -0.0153414 0.000423 0.00981634 -0.0035698 0.0083781 2650 
978 1 -0.00489836 0.0068195 -0.015756 0.000116 0.015313 -0.00383775 -0.0151954 2650 
963 1 -0.00580276 0.00716842 -0.0152682 0.000116 -0.0441964 -0.0047425 -0.0272805 2650 
1219 1 -0.000604583 0.00715709 -0.0157093 0.000656 0.0133734 0.0239605 0.00857101 2650 
1620 1 -0.00293185 0.00824905 -0.0156871 0.000116 0.0529387 0.0514306 -0.00503745 2650 
2969 1 -0.00145124 0.00823489 -0.0150912 0.000656 -0.00781599 0.0183331 -4.51083e-05 2650 
1483 1 -0.000322099 0.00858479 -0.0153335 0.000423 -0.0010087 0.0213686 -0.00667363 2650 
3830 1 -0.006879 0.00942868 -0.015411 4.2e-05 0 -0.011753 0 2650 
86 1 -0.002064 0.00913268 -0.015055 0.000116 0 -0.011753 0 2650 
3177 1 -0.001068 0.00893268 -0.015412 4.2e-05 0 -0.011753 0 2650 
1228 1 -0.00144392 0.00933328 -0.0150108 0.000423 -0.0026547 0.0243513 0.000515369 2650 
371 1 -0.000455665 0.00996199 -0.0152906 0.000423 0.000724313 -0.00601752 -0.0061741 2650 
938 1 -0.000869 0.0103387 -0.015416 0.000116 0 -0.011753 0 2650 
568 1 -0.00245352 0.0168151 -0.0151889 0.000423 0.0646767 0.0324089 0.0265592 2650 
142 1 -0.00449488 0.0234751 -0.0150912 0.000423 -0.0600809 0.0373384 0.0570253 2650 
456 1 -0.00525502 0.038779 -0.0156196 0.000423 -0.665288 -0.0373627 0.276918 2650 
1433 1 -0.0667269 -0.0161515 -0.0147841 0.000656 -0.968927 -0.341268 4.29293 2650 
2875 1 -0.0670167 -0.0146496 -0.0145427 0.000423 -0.87803 -0.0657195 4.13606 2650 
2819 1 -0.0216855 -0.00384289 -0.0144546 0.000116 -2.97499 -0.0907334 -1.91072 2650 
1022 1 -0.002935 -0.00199103 -0.0144932 0.000423 -0.0361806 0.0454744 -0.169588 2650 
2827 1 -0.00514579 -0.0012602 -0.0142479 0.000116 -0.0201753 -0.0226203 0.0017234 2650 
2817 1 -0.00177746 -0.00152962 -0.0143971 0.000116 0.0100645 -0.056664 0.00630574 2650 
1053 1 -0.007469 -0.000513319 -0.014946 0.000116 0 -0.011753 0 2650 
509 1 -0.00737752 -0.00034169 -0.0142816 0.000116 -0.00521486 0.00944493 -0.0325939 2650 
2332 1 -0.00434186 0.000117416 -0.0142415 0.000423 -0.0114447 -0.00779769 0.00753018 2650 
222 1 -0.00225326 3.82506e-07 -0.0146367 0.000656 -0.0189906 -0.0240038 0.0410277 2650 
2922 1 -0.00661235 0.00150071 -0.0145639 0.000116 -0.0108987 -0.0113206 0.0393947 2650 
220 1 -0.00362513 0.00261408 -0.0148157 4.2e-05 0.00197382 0.00663681 0.00671825 2650 
1171 1 -0.00865906 0.00416341 -0.0142876 0.000116 0.0131753 -0.0110464 0.0150896 2650 
3365 1 -0.002315 0.00575468 -0.014552 0.000116 0 -0.011753 0 2650 
3950 1 -0.00713804 0.00645921 -0.0144334 0.000656 0.000269197 -0.0034931 0.0278554 2650 
1618 1 -0.00846459 0.00782194 -0.0143008 0.000116 -0.0222988 0.059375 0.0201275 2650 
581 1 -0.00560608 0.00864268 -0.0143528 0.000423 -0.000593495 -0.0101803 -0.00423903 2650 
1827 1 -0.00669927 0.00947075 -0.0143596 0.000116 -0.0386186 0.00754243 -0.0442276 2650 
233 1 -0.00477768 0.00977214 -0.014685 0.000423 0.000342891 -0.00976437 -0.0328705 2650 
3669 1 -0.00025262 0.0106384 -0.0146671 0.000423 0.00220454 -0.00743356 -0.00383523 2650 
3644 1 -0.000940903 0.0124194 -0.0149578 0.000423 -0.00432743 0.00711996 -0.0325914 2650 
478 1 -0.00755024 0.0150184 -0.0144061 0.000423 -0.0255767 0.012458 -0.051203 2650 
913 1 -0.00106686 0.024788 -0.0149174 0.000423 -0.0131935 0.0940792 0.0439723 2650 
1468 1 -0.0045916 -0.00253936 -0.0138098 0.000423 -0.0197001 -0.0470204 -0.0326717 2650 
3733 1 -0.00657057 0.00117935 -0.0136983 0.000656 -0.0232119 0.0173762 0.0152854 2650 
1032 1 -0.00789777 0.00387923 -0.0139824 0.000423 -0.0173367 -0.00904293 -0.0556269 2650 
3587 1 -0.00610192 0.00387659 -0.0141187 0.000116 -0.0152422 -0.0151231 -0.00566973 2650 
234 1 -0.000930467 0.00373642 -0.0135209 0.000423 0.0351287 -0.0167305 0.0264562 2650 
2512 1 -0.00946933 0.00428603 -0.0136633 0.000116 0.018779 -0.0192413 0.00230208 2650 
4165 1 -0.00517236 0.00397951 -0.013715 0.000656 -6.3943e-05 -0.032131 0.00827285 2650 
2918 1 -0.00790616 0.00499761 -0.0139146 0.000116 -0.0132236 0.0205789 -0.0380223 2650 
1288 1 -0.002467 0.00705768 -0.014044 0.000116 0 -0.011753 0 2650 
4227 1 -0.000380301 0.00693075 -0.013847 0.000116 -0.00921828 -0.0161692 0.0154311 2650 
2322 1 -0.00834304 0.00720383 -0.0135895 0.000656 -0.010949 -0.0100426 0.00333341 2650 
3515 1 -0.00719598 0.00773555 -0.0141183 0.000656 -0.0103794 -0.0121819 0.00307219 2650 
4190 1 -0.00836509 0.00856616 -0.0141772 0.000423 -0.009489 7.8582e-05 0.00632979 2650 
2222 1 -0.00045598 0.00800398 -0.0141724 0.000423 -0.00549102 -0.00568171 -0.00117535 2650 
4257 1 -0.00820292 0.00987182 -0.0140626 0.000116 0.0101268 -0.0416798 0.0036163 2650 
1476 1 -0.006941 0.00985768 -0.013435 0.000423 0 -0.011753 0 2650 
1986 1 -0.00290297 0.00985816 -0.0137624 0.000656 0.00762539 0.0149956 0.0116892 2650 
1409 1 -0.00044 0.0108377 -0.013868 0.000116 0 -0.011753 0 2650 
3007 1 -0.00134465 0.0113893 -0.0140223 0.000423 -0.0135196 -0.00505473 -0.0280609 2650 
3216 1 -0.00462772 0.0264297 -0.0134413 0.000423 -0.00544148 0.107266 0.0543995 2650 
3683 1 -0.0676691 -0.0114738 -0.012879 0.000116 -0.955981 0.0214928 4.96253 2650 
3153 1 -0.00141364 -0.00283704 -0.013405 0.000116 0.0575311 -0.0297429 -0.0490481 2650 
2160 1 -0.0676225 -0.00215831 -0.0131233 0.000116 -0.845277 -0.183704 4.30447 2650 
2172 1 -0.007766 -0.00163752 -0.0131658 0.000116 0.0554355 0.00150652 -0.0523356 2650 
3551 1 -0.00653132 0.00027954 -0.0130246 0.000423 -0.015336 0.00523015 0.00637389 2650 
4126 1 -0.0048711 0.000165209 -0.0132482 0.000116 -0.0261531 0.0084042 0.00402279 2650 
2525 1 -0.004063 0.00128468 -0.013231 4.2e-05 0 -0.011753 0 2650 
2619 1 -0.005851 0.00210068 -0.012854 0.000116 0 -0.011753 0 2650 
3880 1 -0.010277 0.00301668 -0.012913 0.000423 0 -0.011753 0 2650 
2609 1 -0.00886 0.00282468 -0.013248 0.000116 0 -0.011753 0 2650 
3917 1 -0.003984 0.00358568 -0.012703 0.000116 0 -0.011753 0 2650 
2059 1 -0.003583 0.00379468 -0.012756 0.000116 0 -0.011753 0 2650 
3322 1 -0.00347419 0.00463036 -0.012812 0.000423 0.00110678 0.0140263 0.0123959 2650 
2912 1 -0.00561846 0.00482809 -0.0132395 0.000116 0.00196064 0.0151142 0.00117299 2650 
4078 1 -0.00922888 0.00619499 -0.0127003 0.000423 -0.0196946 -0.00953845 0.00130892 2650 
450 1 -0.00634477 0.00575467 -0.0131706 0.000656 0.0112424 0.0469319 0.00733295 2650 
104 1 -0.00301715 0.00596474 -0.0131085 4.2e-05 -0.00674979 0.0150481 0.0116551 2650 
1427 1 -0.002948 0.00612568 -0.013376 4.2e-05 0 -0.011753 0 2650 
3446 1 -0.00240318 0.00567628 -0.0126682 0.000423 0.014297 -0.016402 -0.00312272 2650 
2913 1 -0.00781813 0.00670638 -0.013309 0.000116 -0.0140945 -0.0228944 -0.00540615 2650 
4296 1 -0.00382329 0.00679702 -0.0131249 0.000423 -0.0431702 0.0421068 0.0473826 2650 
3259 1 -0.00879177 0.00750724 -0.0129785 0.000116 -0.0089878 -0.00810535 0.00538998 2650 
1584 1 -0.00154283 0.00776499 -0.0127367 0.000423 -0.00963006 0.0395817 0.04039 2650 
508 1 -0.00973507 0.00837493 -0.0133875 0.000116 -0.0281885 0.0711476 0.0146726 2650 
1237 1 -0.00997499 0.00793582 -0.0131725 0.000423 0.0140946 0.0191627 -0.00854221 2650 
1795 1 -0.00872529 0.00812151 -0.0129877 0.000423 0.00165908 -0.0118589 -0.000959055 2650 
1250 1 -0.00795397 0.00861962 -0.0131722 0.000423 -0.0109693 -0.0170514 -0.0143142 2650 
1769 1 -0.0065272 0.00864108 -0.0133816 0.000656 -0.0148717 0.000652235 -0.0101128 2650 
2483 1 -0.00904453 0.00919117 -0.0129629 0.000116 0.00258646 -0.0218162 0.0129531 2650 
205 1 -0.000744 0.00884168 -0.01334 0.000116 0 -0.011753 0 2650 
289 1 -0.00162114 0.00974366 -0.0133308 0.000116 -0.0188061 -0.000940224 -0.0594549 2650 
1775 1 -0.00822874 0.0116002 -0.0130471 0.000423 -7.29146e-05 -0.011186 -0.000346901 2650 
949 1 -0.006676 0.0112519 -0.0128099 0.000116 -0.0176518 0.0277962 -0.00593252 2650 
3632 1 -0.00976774 0.0127974 -0.0133487 0.000423 -0.0216519 0.000467483 0.0139725 2650 
959 1 -0.0082681 0.0133241 -0.013393 0.000116 -0.0723779 0.0623805 -0.0339909 2650 
2467 1 -0.00106511 0.0311769 -0.0133248 0.000423 0.0301791 0.103437 0.0421276 2650 
3095 1 -0.0674525 -0.00997648 -0.0123722 0.000423 -0.931906 0.163447 5.06132 2650 
330 1 -0.00838479 -0.00317055 -0.0122171 4.2e-05 -0.0696064 -0.0147686 0.0345761 2650 
4097 1 -0.00891049 -0.002216 -0.0122008 0.000423 -0.0116536 0.00229875 0.0371095 2650 
2468 1 -0.00384836 -0.00187289 -0.0121284 0.000423 -0.0504222 0.0211365 0.000191011 2650 
1763 1 -0.001143 -0.00202932 -0.012442 0.000656 0 -0.011753 0 2650 
3191 1 -0.00734672 -0.000279942 -0.0125556 0.000656 -0.0197381 0.00193499 -0.0014393 2650 
1422 1 -0.003881 -0.000183319 -0.012349 4.2e-05 0 -0.011753 0 2650 
1799 1 -0.00322988 0.00062389 -0.0120564 0.000423 7.10678e-05 -0.0118308 4.63239e-05 2650 
3956 1 -0.00904571 0.00151802 -0.0123121 0.000656 -0.000640959 -0.0104529 -0.000368355 2650 
541 1 -0.006435 0.000792029 -0.0126144 4.2e-05 -0.0143735 0.00954058 0.00936495 2650 
3389 1 -0.010415 0.00208268 -0.012026 0.000116 0 -0.011753 0 2650 
3201 1 -0.0063424 0.00159193 -0.0122582 0.000423 -0.00608722 0.0216696 0.0089772 2650 
3645 1 -0.00611931 0.00328333 -0.0124158 0.000423 -0.0357151 -0.0039173 0.0164321 2650 
1192 1 -0.00524991 0.00376002 -0.0121402 0.000116 -0.0160738 0.0171838 -0.0228619 2650 
411 1 -0.0105408 0.00447559 -0.0120912 0.000116 -0.00787832 -0.00657823 -8.20909e-05 2650 
3826 1 -0.009208 0.00397768 -0.012552 0.000116 0 -0.011753 0 2650 
3316 1 -0.008979 0.00473068 -0.012376 0.000423 0 -0.011753 0 2650 
708 1 -0.00277003 0.00443303 -0.0123411 0.000423 0.0112279 -0.00894022 0.00239788 2650 
3380 1 -0.00224569 0.00429018 -0.0119344 0.000116 -0.00133046 -0.0120531 0.0302183 2650 
2194 1 -0.00223585 0.00466737 -0.0124479 4.2e-05 0.00491046 0.00111596 0.00228026 2650 
2957 1 -0.00144499 0.00463549 -0.0122631 4.2e-05 0.0205169 0.0248349 -0.000218849 2650 
2596 1 -0.009727 0.00482471 -0.0126001 0.000116 -0.0442582 -0.0431064 0.0384975 2650 
1261 1 -0.00745061 0.00492223 -0.0124509 0.000423 -0.000148786 -0.00207045 -0.0014312 2650 
3362 1 -0.00265946 0.00507322 -0.0123435 0.000116 0.000350619 -0.00253681 -0.00404217 2650 
3030 1 -0.001189 0.00624068 -0.012596 0.000116 0 -0.011753 0 2650 
2219 1 -0.0027892 0.0068875 -0.0122008 0.000423 0.0430827 0.0512131 0.0198144 2650 
445 1 -0.00964825 0.00728352 -0.0123035 0.000656 -0.00157651 -0.00352117 -0.00927671 2650 
4318 1 -0.00860436 0.00759625 -0.0123006 0.000423 0.000634828 -0.00541564 0.00164809 2650 
1495 1 -0.004483 0.00770868 -0.012591 0.000116 0 -0.011753 0 2650 
3684 1 -0.00425766 0.00778269 -0.0125774 0.000116 0.00413104 -0.0230128 -0.00941473 2650 
2344 1 -0.000907147 0.00718945 -0.0122978 0.000423 0.00597873 -0.023338 -0.0226217 2650 
4179 1 -0.00724324 0.00859462 -0.0122743 0.000423 -0.00767678 -0.0221048 -0.00852388 2650 
3173 1 -0.004958 0.00836968 -0.012321 4.2e-05 0 -0.011753 0 2650 
1519 1 -0.00349843 0.00826131 -0.0118742 0.000116 -0.0659584 -0.0345951 0.00219142 2650 
2630 1 -0.001036 0.00857768 -0.012074 4.2e-05 0 -0.011753 0 2650 
4002 1 -0.000443 0.00840168 -0.01223 0.000116 0 -0.011753 0 2650 
3847 1 -0.00962264 0.00880247 -0.0125228 0.000656 0.00191913 0.0130802 -0.00623859 2650 
2453 1 -0.00622573 0.00876352 -0.0123008 0.000423 0.00783944 0.0181262 -0.00771338 2650 
1423 1 -0.00145 0.0100577 -0.012526 4.2e-05 0 -0.011753 0 2650 
2781 1 -0.0054246 0.010318 -0.0118924 0.000423 -0.0147005 -0.0142306 -0.0211936 2650 
3106 1 -0.00792881 0.0121937 -0.0124741 0.000423 -0.042507 0.0242048 -0.0146805 2650 
1802 1 -0.00406637 0.0124534 -0.0122143 0.000423 0.00500259 -0.000364755 -0.0111755 2650 
2205 1 -0.00514322 0.0132783 -0.0121038 0.000656 -0.00206311 0.000112593 -0.00429342 2650 
1143 1 -0.000727077 0.0146097 -0.0126034 0.000423 0.0070315 0.0110531 -0.00616027 2650 
3932 1 -0.00445544 0.0208406 -0.0120716 0.000116 0.03152 0.0411719 0.0597923 2650 
352 1 -0.00633025 0.0454568 -0.0120307 0.000423 0.0275371 -0.163578 -0.159114 2650 
3601 1 -0.0679205 -0.0419575 -0.0114794 0.000116 -1.02253 0.604957 6.03801 2650 
555 1 -0.0673305 -0.0338974 -0.0117393 0.000656 -1.11819 -0.0400686 6.25361 2650 
1740 1 -0.0678734 -0.0243085 -0.0117544 0.000116 -0.840037 -0.0674257 4.87035 2650 
3505 1 -0.006952 -0.00302132 -0.011235 4.2e-05 0 -0.011753 0 2650 
2666 1 -0.00791279 -0.00163247 -0.0117799 0.000423 0.00506312 -0.0128769 -0.0752945 2650 
800 1 -0.00671472 -0.00221974 -0.0116462 0.000423 -0.00429202 -0.0325333 0.0439645 2650 
440 1 -0.00061 -0.00171932 -0.011485 4.2e-05 0 -0.011753 0 2650 
2939 1 -0.00942428 -0.000385721 -0.0111195 0.000116 -0.00341769 -0.0275913 0.0148239 2650 
3200 1 -0.00878815 7.33292e-05 -0.0110727 0.000423 -0.0275514 -0.0115593 0.0194145 2650 
756 1 -0.00541411 0.000785235 -0.0115818 0.000116 0.041834 0.0697036 0.0154272 2650 
2062 1 -0.00707475 0.00154043 -0.0113732 0.000116 -0.0517879 -0.0811336 0.00337392 2650 
3894 1 -0.005583 0.00145168 -0.011098 0.000116 0 -0.011753 0 2650 
1063 1 -0.009531 0.00200668 -0.011683 0.000116 0 -0.011753 0 2650 
388 1 -0.00703416 0.00203734 -0.0117089 0.000116 0.0212466 0.0335067 0.0250458 2650 
3477 1 -0.00881315 0.00251912 -0.0118265 0.000116 0.0616358 -0.0139442 -0.0219299 2650 
1125 1 -0.00653563 0.00341433 -0.0112639 0.000423 -0.0443086 0.0114405 0.0272453 2650 
2294 1 -0.004894 0.00368768 -0.011565 0.000116 0 -0.011753 0 2650 
2474 1 -0.00265024 0.00379657 -0.0114337 0.000423 -0.00380852 -0.00865862 -0.00797376 2650 
2285 1 -0.0114255 0.00405114 -0.0117898 0.000116 0.0175306 0.0103543 0.003719 2650 
1822 1 -0.00889548 0.00455483 -0.0111278 0.000116 -0.0361035 -0.0195415 0.0016013 2650 
3787 1 -0.00645182 0.00433299 -0.0113905 0.000116 -0.0024271 -0.00223267 -0.0195234 2650 
878 1 -0.0039184 0.00452662 -0.0112205 4.2e-05 -0.000281569 -0.00211859 -0.00050102 2650 
1215 1 -0.0117246 0.00548242 -0.0111332 0.000656 -0.000279333 -0.00226461 0.00683019 2650 
3221 1 -0.00843239 0.00516485 -0.0116686 0.000423 -0.0383607 -5.03589e-05 -0.0190963 2650 
1758 1 -0.00201 0.00500168 -0.01144 4.2e-05 0 -0.011753 0 2650 
4027 1 -0.003218 0.00613268 -0.011075 0.000116 0 -0.011753 0 2650 
2409 1 -0.002586 0.00607168 -0.011527 4.2e-05 0 -0.011753 0 2650 
2338 1 -0.00943384 0.00709687 -0.01114 0.000423 -0.0329479 -0.00278614 0.0142677 2650 
763 1 -0.00551169 0.00649084 -0.0113777 4.2e-05 -0.0107376 -0.0192397 -0.014763 2650 
3456 1 -0.00361872 0.00682058 -0.0113061 0.000423 -0.000997028 -0.0111859 -0.00366568 2650 
3283 1 -0.000522671 0.00675903 -0.0117199 4.2e-05 0.0397515 0.0433617 -0.0233311 2650 
713 1 -0.00782486 0.00766901 -0.0112269 0.000423 -0.0119296 0.00314301 0.00578085 2650 
2547 1 -0.011946 0.00855144 -0.0112075 0.000423 -0.0172305 -0.00928707 0.00629179 2650 
2798 1 -0.00804615 0.00861189 -0.0117846 0.000423 0.0168646 0.022512 -0.0112906 2650 
65 1 -0.0122545 0.00904662 -0.0112688 0.000116 -0.0150343 -0.00322364 0.0082715 2650 
4314 1 -0.0106447 0.00906927 -0.0114306 0.000423 0.0169785 -0.00769928 0.00870958 2650 
2092 1 -0.00333163 0.00897792 -0.0115638 0.000656 -0.0436925 0.0013821 -0.0433895 2650 
191 1 -0.01176 0.00995504 -0.011174 0.000116 -0.0068407 0.0371391 0.023513 2650 
3145 1 -0.006381 0.0105237 -0.011273 0.000116 0 -0.011753 0 2650 
976 1 -0.005828 0.0119007 -0.011785 0.000116 0 -0.011753 0 2650 
4167 1 -0.00302465 0.0130749 -0.0112253 0.000656 0.00543059 0.0184819 -0.00286251 2650 
3798 1 -0.00442908 0.019868 -0.0111126 0.000116 -0.0483102 0.213285 0.0286816 2650 
1195 1 -0.0107735 0.0221236 -0.0111115 0.000116 -0.00414536 0.08815 -0.0855441 2650 
675 1 -0.00541373 0.0225256 -0.0118388 0.000423 -0.0171714 0.0807922 0.0289201 2650 