ITEM: TIMESTEP
10690020
ITEM: NUMBER OF ATOMS
4332
ITEM: BOX BOUNDS ff ff ff
-0.15 0.15
-0.15 0.06
-0.15 0.15
ITEM: ATOMS id type x y z radius vx vy vz density 
747 1 -0.0940794 -0.0258906 -0.0584021 0.000116 -11.0687 -0.797767 1.27924 2650 
4035 1 -0.0791181 -0.0416324 -0.0213279 0.000116 -8.65403 -0.062754 7.86531 2650 
4025 1 -0.0201756 -0.0502388 -0.065862 0.000116 -6.71545 0.205375 1.91397 2650 
2064 1 -0.0222683 -0.0516226 -0.0651384 0.000116 -6.62184 -0.221237 2.24961 2650 
669 1 -0.0242885 -0.061784 -0.0638854 0.000656 -7.68271 0.0504021 2.93196 2650 
1256 1 -0.0320509 -0.0460279 -0.0606275 0.000423 -7.75739 -0.0783846 4.12445 2650 
3391 1 -0.0379078 -0.0466837 -0.0576035 4.2e-05 -5.17159 -0.237995 3.39446 2650 
1638 1 -0.0574995 -0.0546193 -0.0379318 0.000116 -3.2295 0.736795 4.92654 2650 
51 1 -0.0636117 -0.0501268 -0.0256217 0.000423 -3.05024 -0.113701 7.55964 2650 
2317 1 -0.0634357 -0.0466118 -0.0254377 0.000656 -3.31794 -0.0189136 8.28181 2650 
1903 1 -0.0644932 -0.0464033 -0.0233022 0.000423 -2.69988 0.10014 7.5107 2650 
1462 1 -0.0647478 -0.0506594 -0.0225921 0.000423 -2.43414 0.222855 6.989 2650 
3181 1 -0.0660249 -0.0451859 -0.0198803 4.2e-05 -1.81256 -0.56968 5.90187 2650 
1196 1 -0.0679284 -0.0457096 -0.0114335 0.000116 -0.972434 0.86713 5.68346 2650 
1568 1 -0.067809 -0.0454597 -0.0102435 0.000423 -1.1495 -0.332895 7.51242 2650 
4288 1 -0.06738 -0.0466423 0.0127514 0.000423 1.36367 -0.0895775 7.33053 2650 
3079 1 -0.0670863 -0.0486312 0.0130447 0.000656 1.55909 -0.0536592 8.13448 2650 
3409 1 -0.0647394 -0.0516064 0.0219091 0.000656 2.60557 -0.0380899 7.73596 2650 
2578 1 -0.0595761 -0.0462671 0.0339508 0.000423 4.24793 0.255703 7.43455 2650 
4133 1 -0.0601058 -0.045679 0.0336394 0.000116 3.62241 0.47616 6.53136 2650 
3570 1 -0.056576 -0.0590327 0.0392951 0.000116 4.58482 -0.208013 6.59187 2650 
1619 1 -0.0497563 -0.0570882 0.047637 0.000116 5.15334 0.216365 5.38507 2650 
482 1 -0.0379453 -0.0604465 0.0571233 0.000423 6.17425 0.00381975 4.10952 2650 
816 1 -0.00320719 -0.0539898 0.0685028 0.000423 7.26313 -0.114462 0.35377 2650 
3936 1 -0.0398257 -0.025254 -0.13759 4.2e-05 -9.97704 -0.564624 -10.0906 2650 
1865 1 -0.0253366 -0.0163374 -0.112259 4.2e-05 -8.14692 0.480269 -7.09808 2650 
3357 1 -0.00048305 -0.0439274 -0.0688824 0.000116 -6.87996 0.511347 0.0413337 2650 
3399 1 -0.00276828 -0.0323747 -0.0689027 4.2e-05 -7.99091 -0.22516 0.323103 2650 
95 1 -0.00405501 -0.0297997 -0.0687652 0.000116 -6.83941 0.201313 0.410706 2650 
4044 1 -0.0021458 -0.0130503 -0.0688508 0.000116 -5.31739 -0.815884 0.160857 2650 
3248 1 -0.00218633 -0.0120231 -0.0688498 0.000116 -6.05296 1.02793 0.182487 2650 
2698 1 -0.00173625 -0.00964287 -0.0688625 0.000116 -7.72935 0.102838 0.190615 2650 
1208 1 -0.00157514 -0.00942847 -0.0689404 4.2e-05 -7.32999 -0.499894 0.159239 2650 
2593 1 -0.00317829 -0.00755117 -0.068811 0.000116 -4.99228 -0.451007 0.262312 2650 
725 1 -0.000786775 -0.000233109 -0.0688796 0.000116 -7.7443 -0.461166 0.0909359 2650 
83 1 -0.00960263 -0.0420203 -0.0682115 0.000116 -7.23974 0.14522 1.02676 2650 
1463 1 -0.00880452 -0.034739 -0.0680115 0.000423 -6.93871 0.0334472 0.890422 2650 
2139 1 -0.00752126 -0.0327646 -0.068165 0.000423 -7.01974 -0.095554 0.784822 2650 
3386 1 -0.00826611 -0.0320771 -0.0683868 0.000116 -6.53433 0.282292 0.788286 2650 
1566 1 -0.00781687 -0.0318256 -0.0681319 0.000423 -6.73416 0.2369 0.762667 2650 
4084 1 -0.000209297 -0.0256799 -0.0685777 0.000423 -6.86819 -0.0418292 0.0365635 2650 
1901 1 -0.00277216 -0.0249147 -0.0685215 0.000423 -7.29329 -0.0459825 0.271782 2650 
3754 1 -0.00769448 -0.0243791 -0.0681446 0.000423 -6.43487 -0.323913 0.725189 2650 
3096 1 -0.0015796 -0.0240751 -0.0685593 0.000423 -7.03358 -0.0521126 0.186768 2650 
2248 1 -0.00149468 -0.0231726 -0.0685614 0.000423 -6.98006 -0.0390097 0.166937 2650 
42 1 -0.000695809 -0.0220595 -0.0685742 0.000423 -7.15389 -0.0349073 0.0911538 2650 
3862 1 -0.00358976 -0.0186112 -0.0684841 0.000423 -7.62751 -0.196989 0.393944 2650 
158 1 -0.00769139 -0.0169658 -0.0681442 0.000423 -7.90191 -0.00297722 0.899004 2650 
1585 1 -0.00715647 -0.0158388 -0.0682037 0.000423 -7.64499 0.0896061 0.798115 2650 
213 1 -0.0100054 -0.0106663 -0.0682286 4.2e-05 -5.79217 0.0214015 0.86184 2650 
3718 1 -0.00904292 -0.00429183 -0.0683621 4.2e-05 -4.93835 -0.303788 0.647559 2650 
1174 1 -0.00811653 -0.00442916 -0.0684042 0.000116 -6.11832 -0.192175 0.750534 2650 
2131 1 -0.0114195 -0.0393547 -0.0676199 0.000423 -7.37501 0.0361202 1.21747 2650 
4307 1 -0.0130358 -0.033246 -0.0673285 0.000423 -7.25036 0.129248 1.38851 2650 
3743 1 -0.0115314 -0.0323133 -0.0676008 0.000423 -6.76069 -0.0249387 1.16406 2650 
821 1 -0.010133 -0.0292432 -0.0678252 0.000423 -7.19909 -0.048652 1.07727 2650 
3652 1 -0.0111894 -0.0283619 -0.0676586 0.000423 -7.25249 0.26794 1.18851 2650 
198 1 -0.0151084 -0.0274711 -0.0671979 0.000116 -6.03374 -0.628797 1.41983 2650 
2018 1 -0.0140495 -0.0268372 -0.0671146 0.000423 -7.54973 0.269107 1.57096 2650 
2873 1 -0.0120618 -0.0275931 -0.0675087 0.000423 -7.44613 0.0206703 1.32187 2650 
688 1 -0.0106705 -0.0239223 -0.0677418 0.000423 -8.00508 -0.543183 1.26014 2650 
4331 1 -0.0123964 -0.0236462 -0.0677581 0.000116 -7.87154 -0.439857 1.42371 2650 
4345 1 -0.0138933 -0.0218094 -0.0674684 0.000116 -6.26229 -0.315375 1.27703 2650 
3549 1 -0.0124633 -0.0218484 -0.0674353 0.000423 -8.11967 -1.1682 1.52094 2650 
3891 1 -0.0122716 -0.0210128 -0.0674406 0.000423 -5.29034 -1.16918 1.49403 2650 
3673 1 -0.0121875 -0.0199703 -0.0674822 0.000423 -3.53105 1.75518 1.79538 2650 
1380 1 -0.0136412 -0.0184168 -0.0675184 0.000116 -7.72073 1.55981 1.55901 2650 
334 1 -0.0114188 -0.0185483 -0.0673844 0.000656 -7.2682 0.200917 1.24849 2650 
596 1 -0.011329 -0.0154889 -0.0676365 0.000423 -6.01095 0.00123163 1.0139 2650 
13 1 -0.0131663 -0.0138083 -0.0673028 0.000423 -6.11581 -0.201803 1.15558 2650 
3139 1 -0.0146667 -0.0122789 -0.0672911 0.000116 -6.67058 0.184504 1.46651 2650 
2007 1 -0.0120042 -0.0111563 -0.0675185 0.000423 -5.40411 -0.369555 0.940049 2650 
1031 1 -0.0134981 -0.00878831 -0.0672344 0.000423 -5.83004 -0.0275468 1.10498 2650 
1193 1 -0.0111605 -0.00406928 -0.0678771 0.000116 -3.26388 0.050684 -2.7705 2650 
2514 1 -0.0134948 -0.00158581 -0.0675488 0.000116 -6.15316 0.0260766 1.27075 2650 
2667 1 -0.016545 -0.0352098 -0.0665416 0.000423 -7.25857 -0.0674474 1.75366 2650 
3626 1 -0.0162042 -0.0248396 -0.0663982 0.000656 -6.05634 -0.130483 1.49718 2650 
1989 1 -0.0160734 -0.0213798 -0.0664297 0.000656 -5.9214 0.183289 1.41755 2650 
3491 1 -0.0169171 -0.0157161 -0.0667665 0.000116 -6.07559 -0.0698247 1.49254 2650 
4038 1 -0.0166209 -0.00542071 -0.0668393 0.000116 -7.30491 0.526379 1.76365 2650 
2921 1 -0.0174596 -0.00367989 -0.0666255 0.000116 -6.34356 -0.157289 1.6564 2650 
4145 1 -0.0160184 -0.000740414 -0.0669953 0.000116 -4.2392 -0.0908067 1.0352 2650 
1849 1 -0.0202794 -0.038865 -0.065831 0.000116 -6.97094 0.449274 2.14205 2650 
2641 1 -0.0188212 -0.0295637 -0.065696 0.000656 -7.54703 0.0569861 2.23164 2650 
3828 1 -0.019339 -0.00626868 -0.0661905 4.2e-05 -7.54583 -0.741776 2.18601 2650 
1841 1 -0.0230765 -0.0413631 -0.0649036 0.000116 -7.0885 -0.188268 2.53185 2650 
1320 1 -0.0219796 -0.0391226 -0.0653613 4.2e-05 -6.81976 -1.07477 2.30412 2650 
2102 1 -0.0209991 -0.0359955 -0.0650413 0.000656 -6.97392 -0.14911 2.25371 2650 
2560 1 -0.0212556 -0.0348371 -0.0652002 0.000423 -6.96697 -0.104859 2.26657 2650 
4312 1 -0.0223899 -0.0329465 -0.0648201 0.000423 -6.91569 -0.133555 2.39112 2650 
2959 1 -0.0231857 -0.0162533 -0.0649432 4.2e-05 -5.77772 -1.17237 2.05244 2650 
1392 1 -0.0231361 -0.0074899 -0.0648819 0.000116 -6.14714 -0.204905 2.19439 2650 
440 1 -0.0123522 -0.00435946 -0.0653933 4.2e-05 -3.2899 -0.0478702 -1.19676 2650 
164 1 -0.0245382 -0.0333159 -0.0640377 0.000423 -5.94007 -0.386324 2.32011 2650 
4293 1 -0.0243285 -0.0314359 -0.0641174 0.000423 -6.41331 -0.260563 2.44048 2650 
892 1 -0.0221361 -0.027944 -0.0646627 0.000656 -7.1646 0.0259991 2.49079 2650 
3444 1 -0.0229088 -0.0255444 -0.0646383 0.000423 -7.11639 0.142744 2.52376 2650 
2271 1 -0.0246004 -0.0155018 -0.0643414 0.000116 -6.52655 -0.00216117 2.48051 2650 
1675 1 -0.0244047 -0.0149581 -0.0640889 0.000423 -8.15439 0.39763 3.10504 2650 
3388 1 -0.0246131 -0.00702324 -0.0643368 0.000116 -5.86593 -0.429341 2.25784 2650 
2246 1 -0.0237135 -0.00683483 -0.0643474 0.000423 -5.83921 -0.503367 2.1383 2650 
579 1 -0.0248521 -0.00525145 -0.0639163 0.000423 -5.41547 0.251486 2.10311 2650 
1886 1 -0.0264235 -0.0174907 -0.0632831 0.000423 -4.86987 -0.146639 2.06496 2650 
2476 1 -0.0272061 -0.0135001 -0.063284 0.000116 -5.44945 -0.0370371 2.32861 2650 
1316 1 -0.0274673 -0.00652728 -0.0632519 4.2e-05 -5.1022 -0.331276 2.20023 2650 
1132 1 -0.0273224 -0.0419349 -0.0629005 0.000423 -7.13795 0.0894214 3.08274 2650 
2532 1 -0.0270834 -0.0386018 -0.0627511 0.000656 -6.63704 -0.362975 2.84598 2650 
1690 1 -0.028032 -0.0375352 -0.0625873 0.000423 -6.56135 -0.113448 2.96792 2650 
2210 1 -0.0275521 -0.0345218 -0.0625463 0.000656 -6.96909 -0.0562097 3.04696 2650 
630 1 -0.0290088 -0.0288997 -0.0624789 0.000116 -4.06329 -0.536897 1.88992 2650 
2282 1 -0.0289698 -0.0109465 -0.0624968 0.000116 -4.48336 0.480076 2.10158 2650 
2681 1 -0.0283855 -0.0084787 -0.0624284 0.000423 -5.92923 -0.204708 2.67677 2650 
3759 1 -0.0300263 -0.0342422 -0.0616559 0.000423 -6.53085 0.143988 3.16666 2650 
2618 1 -0.030402 -0.0236951 -0.061812 0.000116 -6.02121 -0.30142 2.97522 2650 
2160 1 -0.0298292 -0.000365094 -0.0620902 0.000116 -5.25533 0.183992 2.52453 2650 
1878 1 -0.0312269 -0.0449761 -0.0607965 0.000656 -7.82078 0.00420723 4.018 2650 
1890 1 -0.0316983 -0.0183838 -0.0608122 0.000423 -6.03329 -0.0443289 3.13773 2650 
1045 1 -0.0305314 -0.0149418 -0.0614063 0.000423 -4.94363 0.0580418 2.47724 2650 
4264 1 -0.032307 -0.0102871 -0.0609207 4.2e-05 -5.7275 0.389284 3.00356 2650 
2738 1 -0.0313947 -0.000883203 -0.0613967 4.2e-05 -5.15888 -0.132828 2.6309 2650 
3477 1 -0.0202014 -0.00483425 -0.0606048 0.000116 -3.10908 -0.148958 -9.33561 2650 
1647 1 -0.0377003 -0.0409794 -0.0599124 4.2e-05 -7.28114 0.105369 2.48323 2650 
1282 1 -0.0341088 -0.00725009 -0.0598399 0.000116 -4.6565 0.169166 2.67395 2650 
1723 1 -0.0350078 -0.00531246 -0.0593225 0.000116 -4.60663 -0.0778926 2.7274 2650 
2169 1 -0.0365878 -0.0404907 -0.0583636 0.000116 -5.30383 -0.268334 3.31284 2650 
1816 1 -0.036503 -0.0180476 -0.0584162 0.000116 -5.703 -0.198871 3.56785 2650 
3153 1 -0.0362459 -0.00401229 -0.0585732 0.000116 -4.08328 -0.162747 2.51345 2650 
693 1 -0.0384752 -0.039174 -0.0567687 0.000423 -6.15948 0.0842561 4.20147 2650 
3582 1 -0.0384751 -0.0280687 -0.0571374 0.000116 -5.72266 -0.698703 3.83941 2650 
1335 1 -0.0388556 -0.0207855 -0.0564212 0.000423 -5.73585 -0.289011 3.42385 2650 
1640 1 -0.0400396 -0.0106124 -0.0561232 4.2e-05 -5.37687 -0.245464 3.89367 2650 
3047 1 -0.0398509 -0.00977854 -0.0561646 0.000116 -4.24894 -0.269337 3.07381 2650 
3313 1 -0.0404847 -0.0402153 -0.0553528 0.000423 -6.03772 -0.0139151 4.41386 2650 
19 1 -0.0398963 -0.0357326 -0.0557782 0.000423 -6.02666 -0.0396597 4.31208 2650 
2083 1 -0.0405736 -0.00138167 -0.0557553 4.2e-05 -4.41608 -0.0629031 3.26988 2650 
3431 1 -0.0416522 -0.0386602 -0.0544754 0.000423 -5.98803 -0.181668 4.55977 2650 
2256 1 -0.0422643 -0.0357722 -0.0543799 0.000116 -5.32568 -0.318583 4.08976 2650 
3156 1 -0.0415742 -0.0316566 -0.0549194 0.000116 -5.96071 -1.40708 4.41734 2650 
2147 1 -0.04199 -0.0186457 -0.054606 0.000116 -4.96843 -0.56469 3.80721 2650 
2832 1 -0.0434782 -0.0280486 -0.0533744 0.000116 -5.93638 0.973012 4.84247 2650 
3586 1 -0.0440119 -0.00539429 -0.0529903 0.000116 -4.30587 -0.231695 3.58039 2650 
432 1 -0.044772 -0.0199971 -0.0524464 4.2e-05 -4.79698 0.269517 4.0945 2650 
385 1 -0.0443328 -0.0148086 -0.052321 0.000423 -4.06476 -0.170444 3.47408 2650 
2875 1 -0.0438035 -0.0130311 -0.0527652 0.000423 -4.12092 -0.0967317 3.40794 2650 
2626 1 -0.0464092 -0.0260046 -0.0509017 0.000116 -5.0485 -0.0546471 4.56895 2650 
1170 1 -0.046178 -0.00982616 -0.0511143 0.000116 -4.00041 -0.0872375 3.62253 2650 
1210 1 -0.0477658 -0.0288785 -0.0497313 4.2e-05 -5.01042 -0.157689 4.81491 2650 
106 1 -0.0471291 -0.0134579 -0.0503397 4.2e-05 -6.36258 0.0213246 5.95771 2650 
848 1 -0.0428859 -0.00467874 -0.0498922 0.000116 -2.74674 -0.0855419 1.4553 2650 
2465 1 -0.0480815 -0.0367267 -0.0488986 0.000423 -5.43543 -0.034257 5.3987 2650 
2211 1 -0.0475456 -0.0307884 -0.0490964 0.000656 -5.68275 0.0225934 5.52202 2650 
2970 1 -0.0486003 -0.0430046 -0.0480533 0.000656 -5.88039 -0.0380181 5.9265 2650 
420 1 -0.0491075 -0.0228099 -0.0483053 0.000116 -5.90111 -0.349185 5.98437 2650 
1740 1 -0.0493279 -0.0149237 -0.0480812 0.000116 -4.44094 0.400331 4.58581 2650 
3090 1 -0.0500655 -0.0385317 -0.0468645 0.000423 -5.14029 -0.223786 5.51253 2650 
3585 1 -0.0505916 -0.0157868 -0.0467493 0.000116 -4.3108 -0.141438 4.65519 2650 
646 1 -0.0507092 -0.0131271 -0.0466227 0.000116 -4.29133 -0.187041 4.64884 2650 
2310 1 -0.051259 -0.0168903 -0.046127 4.2e-05 -4.03942 -0.172119 4.48336 2650 
3256 1 -0.0515601 -0.0124958 -0.0456799 0.000116 -4.41974 -0.204368 4.98042 2650 
3986 1 -0.0523474 -0.00999954 -0.0443031 0.000423 -3.90884 -0.214757 4.61689 2650 
1419 1 -0.0534087 -0.00972148 -0.0435042 0.000116 -4.20831 -0.516973 5.17153 2650 
404 1 -0.053323 -0.00690054 -0.0436088 0.000116 -3.86897 0.305062 4.74944 2650 
2605 1 -0.0542682 -0.00607585 -0.042426 0.000116 -2.85336 -0.0100339 3.65793 2650 
1558 1 -0.0443261 -0.0193568 -0.041566 0.000423 -6.73039 -1.50007 -6.30322 2650 
981 1 -0.0550582 -0.0147928 -0.0415179 4.2e-05 -3.93477 -0.0103123 5.21588 2650 
1699 1 -0.0549463 -0.0124781 -0.0410342 0.000423 -2.60549 -0.536887 3.5081 2650 
4108 1 -0.0548205 -0.00895458 -0.0412026 0.000423 -2.84137 -0.181474 3.73272 2650 
4311 1 -0.0554033 -0.0420484 -0.0404161 0.000423 -4.59467 0.143839 6.26903 2650 
491 1 -0.0551465 -0.0151297 -0.0407653 0.000423 -3.75585 -0.142746 5.1069 2650 
2291 1 -0.0556188 -0.0129262 -0.0406386 0.000116 -4.73413 0.743574 6.47513 2650 
980 1 -0.0555641 -0.00815063 -0.0408389 4.2e-05 -3.02237 -0.330625 4.10254 2650 
1312 1 -0.0565239 -0.0143928 -0.0394993 4.2e-05 -3.16777 1.0184 4.52214 2650 
2920 1 -0.057071 -0.0306123 -0.0385735 0.000116 -4.74779 0.0128987 7.03003 2650 
4268 1 -0.0566833 -0.0264035 -0.0392706 4.2e-05 -3.87345 -0.255372 5.62703 2650 
3378 1 -0.0567132 -0.00461927 -0.0390966 0.000116 -3.03037 0.582158 4.37058 2650 
838 1 -0.0566522 -0.0214555 -0.0382325 0.000116 -7.06359 -0.561715 7.73709 2650 
1503 1 -0.0575265 -0.0129538 -0.037891 0.000116 -3.50112 0.0709905 5.31018 2650 
2588 1 -0.0580484 -0.0250045 -0.0370864 0.000116 -4.14837 -0.612034 6.47883 2650 
152 1 -0.0579865 -0.0404438 -0.0366136 0.000423 -4.20331 -0.117325 6.64918 2650 
2606 1 -0.0582925 -0.0296037 -0.0367012 0.000116 -4.136 0.300159 6.57982 2650 
2404 1 -0.0581724 -0.0231026 -0.0368908 0.000116 -3.8001 0.0652753 6.00186 2650 
1379 1 -0.0455944 -0.00802561 -0.0368302 0.000116 -6.86171 -0.412598 -5.53751 2650 
468 1 -0.0585157 -0.0384701 -0.0357602 0.000423 -4.10585 -0.105589 6.67995 2650 
3040 1 -0.0591174 -0.0311257 -0.0353569 0.000116 -3.74426 0.164538 6.2654 2650 
1687 1 -0.0585044 -0.0305014 -0.0357803 0.000423 -4.08686 0.024858 6.69963 2650 
1987 1 -0.0584369 -0.0198209 -0.0354452 0.000656 -3.64552 0.0675228 6.10718 2650 
319 1 -0.0590537 -0.012433 -0.0354631 0.000116 -3.3329 0.185801 5.58633 2650 
94 1 -0.0587777 -0.00437635 -0.0359189 0.000116 -3.11827 -0.140899 5.10734 2650 
1249 1 -0.0589625 -0.03045 -0.0350187 0.000423 -3.75557 0.0370981 6.34568 2650 
2371 1 -0.0595821 -0.0238796 -0.0345685 0.000116 -3.6286 0.0324304 6.232 2650 
4132 1 -0.0593513 -0.0110484 -0.0349633 0.000116 -3.22085 0.0439636 5.47762 2650 
1471 1 -0.059658 -0.0374895 -0.0338218 0.000423 -3.64325 -0.248914 6.41483 2650 
1544 1 -0.0592049 -0.0352767 -0.0341479 0.000656 -3.9934 -0.0668735 6.89606 2650 
239 1 -0.0593137 -0.0309443 -0.0344221 0.000423 -3.70521 0.0688766 6.40118 2650 
3367 1 -0.0597801 -0.0237 -0.0342249 0.000116 -3.66489 0.689364 6.39449 2650 
921 1 -0.0592689 -0.0189706 -0.0344982 0.000423 -3.63857 0.0526095 6.27971 2650 
2987 1 -0.0594246 -0.012007 -0.0342299 0.000423 -2.5501 -0.551661 4.38128 2650 
3140 1 -0.0601728 -0.0314043 -0.0335304 0.000116 -3.30543 -0.401638 5.91895 2650 
3196 1 -0.060042 -0.0290936 -0.0331354 0.000423 -3.58174 0.0774951 6.47952 2650 
365 1 -0.060045 -0.0194474 -0.033129 0.000423 -3.55572 -0.167568 6.44175 2650 
862 1 -0.060265 -0.0144741 -0.0333644 0.000116 -3.41308 0.422782 6.14943 2650 
3089 1 -0.0605316 -0.0315029 -0.0322321 0.000423 -3.48691 0.0503621 6.56885 2650 
3470 1 -0.060482 -0.0145948 -0.0329692 0.000116 -3.31552 0.691388 6.06979 2650 
2296 1 -0.0612501 -0.0187337 -0.0315182 0.000116 -3.06671 -0.130198 5.9341 2650 
2790 1 -0.0612836 -0.0356866 -0.0307782 0.000423 -3.36977 -0.0869922 6.70811 2650 
3330 1 -0.0610048 -0.0307568 -0.0313274 0.000423 -3.38782 -0.0912708 6.60601 2650 
3930 1 -0.0616665 -0.00025895 -0.0306958 0.000116 -1.87577 -0.0491664 3.80133 2650 
2091 1 -0.0612632 -0.0424297 -0.0303005 0.000656 -3.59162 0.0127365 7.25016 2650 
3069 1 -0.0620623 -0.0070556 -0.0300587 4.2e-05 -3.19776 -0.752751 6.58621 2650 
2937 1 -0.000167524 -0.0155086 -0.0688836 0.000116 -6.57041 -0.0527076 0.011699 2650 
122 1 -0.0617995 -0.0343013 -0.0291909 0.000656 -3.24811 -0.00341234 6.83427 2650 
1787 1 -0.0621263 -0.0244513 -0.0290391 0.000423 -3.19195 0.278706 6.80352 2650 
4255 1 -0.0627386 -0.0224181 -0.0284397 0.000116 -3.30714 0.887448 7.29909 2650 
670 1 -0.0620032 -0.0172966 -0.0287522 0.000656 -2.9057 -0.0648032 6.27581 2650 
3574 1 -0.0630505 -0.0218417 -0.027742 0.000116 -3.0242 0.00174509 6.85534 2650 
2862 1 -0.0628818 -0.0351862 -0.0267792 0.000656 -3.03748 -0.0203476 7.14701 2650 
577 1 -0.0631062 -0.0329892 -0.0268452 0.000423 -2.91112 -0.0641456 6.79703 2650 
3964 1 -0.0630476 -0.0191624 -0.0269816 0.000423 -2.99926 0.29632 7.02616 2650 
4052 1 -0.063296 -0.0171329 -0.0273643 4.2e-05 -3.09097 1.09621 7.12662 2650 
3539 1 -0.0633263 -0.0196574 -0.0263187 0.000423 -2.85318 -0.0866092 6.93113 2650 
2086 1 -0.0638853 -0.0123824 -0.025959 4.2e-05 -1.89852 -0.223938 4.64446 2650 
3382 1 -0.0636049 -0.00265678 -0.0264453 0.000116 -2.16017 -0.310709 5.23561 2650 
3534 1 -0.0636872 -0.0422889 -0.0254333 0.000423 -3.03 0.0975432 7.6239 2650 
2208 1 -0.0634411 -0.0263454 -0.0254242 0.000656 -2.87065 0.00545536 7.16441 2650 
1303 1 -0.0641464 -0.000117274 -0.0251042 0.000116 -2.249 -3.90765e-05 5.73361 2650 
2242 1 -0.0641343 -0.0284176 -0.0242754 0.000423 -2.72674 -0.0275416 7.1914 2650 
335 1 -0.063722 -0.0274129 -0.0247136 0.000656 -2.7764 -0.0293224 7.15442 2650 
4342 1 -0.0641615 -0.0232452 -0.0250649 0.000116 -2.66373 0.353579 6.7731 2650 
658 1 -0.0644884 -0.00495303 -0.0244204 4.2e-05 -2.32485 -0.387284 6.17822 2650 
4308 1 -0.0642376 -0.0409343 -0.0240097 0.000423 -2.83606 -0.114887 7.61496 2650 
4319 1 -0.0643112 -0.0274875 -0.0238086 0.000423 -2.66051 -0.103893 7.22975 2650 
2245 1 -0.0641461 -0.0265236 -0.0242463 0.000423 -2.71257 -0.00848134 7.19502 2650 
1499 1 -0.0645988 -0.0204851 -0.0239178 0.000116 -2.69099 0.3401 7.27649 2650 
2367 1 -0.0644676 -0.00475757 -0.0242657 0.000116 -2.51451 -0.52162 6.57112 2650 
115 1 -0.0643829 -0.039716 -0.0229338 0.000656 -2.70459 -0.0430955 7.66686 2650 
2251 1 -0.0645614 -0.026567 -0.023115 0.000423 -2.62489 -0.11368 7.29544 2650 
1111 1 -0.0643101 -0.0249991 -0.0231361 0.000656 -2.60634 -0.0100945 7.25799 2650 
71 1 -0.0649303 -0.0135759 -0.0229952 0.000116 -3.14021 0.142244 8.90373 2650 
3000 1 -0.0648744 -0.0390567 -0.022233 0.000423 -2.63682 -0.00845677 7.69533 2650 
4297 1 -0.0648539 -0.03252 -0.0222717 0.000423 -2.30205 0.146031 6.55172 2650 
588 1 -0.0648721 -0.0247972 -0.0222336 0.000423 -2.5274 -0.0778024 7.33882 2650 
2705 1 -0.0654765 -0.0245219 -0.0213884 0.000116 -2.1852 0.128454 6.63637 2650 
4316 1 -0.0652713 -0.0436622 -0.0210331 0.000423 -2.54238 -0.127517 7.8647 2650 
1612 1 -0.06561 -0.04281 -0.0209823 0.000116 -2.59666 0.11232 8.10609 2650 
355 1 -0.0654702 -0.0418492 -0.0204097 0.000423 -2.6993 0.231902 8.62039 2650 
2212 1 -0.0650124 -0.0288062 -0.0210641 0.000656 -2.32073 -0.0562579 7.29075 2650 
1326 1 -0.065304 -0.0429044 -0.0201639 0.000656 -2.41843 -0.0231595 7.83946 2650 
4147 1 -0.065955 -0.0272363 -0.0198301 0.000116 -2.01288 -0.280631 6.39677 2650 
2072 1 -0.0658829 -0.0258069 -0.020106 0.000116 -2.09898 0.337687 6.9614 2650 
2355 1 -0.0656833 -0.0217473 -0.0197114 0.000423 -2.24947 -0.106614 7.42827 2650 
1466 1 -0.065543 -0.00402961 -0.0201747 0.000423 -1.87968 0.0147289 6.1902 2650 
3694 1 -0.0659522 -0.00350326 -0.0198672 0.000116 -1.9161 0.0477432 6.25568 2650 
2237 1 -0.0658794 -0.0360135 -0.0190092 0.000423 -2.33247 -0.0897614 7.97744 2650 
1958 1 -0.0660924 -0.0235719 -0.0193934 0.000116 -2.4421 -1.38746 8.33689 2650 
4128 1 -0.0660404 -0.0126864 -0.0195372 0.000116 -2.02605 0.0560702 6.56938 2650 
2327 1 -0.066022 -0.0321392 -0.0184406 0.000423 -2.065 -0.0169871 7.35616 2650 
3134 1 -0.066412 -0.00278239 -0.0182802 0.000116 -1.47025 0.0500254 5.09299 2650 
2028 1 -0.0661734 -0.0345106 -0.0179043 0.000423 -1.83906 0.0283177 6.8433 2650 
1180 1 -0.0668202 -0.00608412 -0.0167159 0.000116 -1.39993 -0.0193871 5.9704 2650 
606 1 -0.000183 0.00131402 -0.016592 0.000116 0 -0.011753 0 2650 
4227 1 -0.000407443 0.00365292 -0.0167125 0.000116 0.00593372 -0.017543 0.0130313 2650 
2520 1 -0.000213457 0.00489716 -0.01662 4.2e-05 0.00318265 0.000380138 0.00682554 2650 
3365 1 -0.00179659 0.00588232 -0.0166762 0.000116 0.015804 0.0241832 0.0212134 2650 
2056 1 -0.000672093 0.0343491 -0.0167543 0.000116 -0.836909 0.140544 -0.0336253 2650 
4323 1 -0.066715 -0.0215208 -0.0158709 0.000423 -1.69891 0.0307481 7.12417 2650 
2013 1 -0.00299687 0.00309555 -0.0158704 0.000423 -0.00154235 0.00221798 0.00156406 2650 
2301 1 -0.00433678 0.00340863 -0.0160645 4.2e-05 -0.00116259 -0.0070103 0.00459775 2650 
2283 1 -0.00352952 0.0044764 -0.016381 0.000116 -0.00010552 0.00956354 0.000789399 2650 
889 1 -0.00144861 0.00447917 -0.0160883 0.000656 0.0220635 0.0158109 0.0220891 2650 
978 1 -0.00222202 0.0062689 -0.0164203 0.000116 0.0180122 -0.00353228 -0.00159853 2650 
3934 1 -0.001977 0.00607602 -0.016218 0.000116 0 -0.011753 0 2650 
2726 1 -0.000487273 0.00904129 -0.0158371 0.000116 -0.00741369 0.00988612 -0.041436 2650 
938 1 -0.00151927 0.00992712 -0.0159805 0.000116 -0.00119823 0.000558801 -0.00633771 2650 
302 1 -0.00137606 0.0100184 -0.0164637 0.000116 -0.0434127 0.0256721 -0.0191129 2650 
1483 1 -0.00048765 0.0104271 -0.0164959 0.000423 -0.000431738 0.0094693 0.00416488 2650 
3007 1 -0.00287527 0.0114116 -0.0160001 0.000423 -0.00754521 0.0118776 -0.00214285 2650 
371 1 -0.000434918 0.011872 -0.0162185 0.000423 -0.00963196 0.00951459 -0.00479058 2650 
2851 1 -0.00389266 0.0133093 -0.0163428 4.2e-05 -0.261069 -0.140633 0.0469352 2650 
188 1 -0.00303456 0.013345 -0.0161646 0.000116 -0.0148612 0.0228045 0.00418427 2650 
2182 1 -0.00153342 0.0136806 -0.0163815 0.000116 0.00266263 0.0360122 0.0211071 2650 
2713 1 -0.000706188 0.0155889 -0.0159482 0.000116 0.00037122 0.035974 0.00535071 2650 
3051 1 -0.00448581 0.0167887 -0.0158851 0.000116 0.163555 -0.227841 -0.0207843 2650 
3165 1 -0.00557211 0.0197396 -0.0158275 0.000116 -0.226306 0.152489 0.0932306 2650 
456 1 -0.00299558 0.0431166 -0.0160961 0.000423 -0.596008 0.0230783 0.1117 2650 
2559 1 -0.0668928 -0.025744 -0.0151088 0.000423 -1.58288 0.0190037 7.02097 2650 
844 1 -0.0672438 -0.0131937 -0.0149415 0.000116 -1.01265 0.213797 4.52463 2650 
30 1 -0.00214257 -0.0021566 -0.0154922 0.000423 -0.0139928 -0.0214008 0.00726417 2650 
3599 1 -0.000469518 -0.00175968 -0.0153054 0.000116 0.0260231 -0.00977207 -0.00117121 2650 
3576 1 -0.00111353 -0.00139679 -0.015195 0.000116 0.0561059 0.00120064 -0.0311085 2650 
2399 1 -0.002418 0.00152802 -0.015541 0.000116 0 -0.011753 0 2650 
3637 1 -0.00537027 0.00414743 -0.0153596 0.000423 -0.00704251 0.0124689 0.006236 2650 
1611 1 -0.00191714 0.00435674 -0.0154438 0.000116 0.0513704 -0.0152435 0.0155029 2650 
1679 1 -0.0042571 0.00489631 -0.0157749 0.000423 -0.00453172 0.0157125 0.00260684 2650 
3830 1 -0.006879 0.00762802 -0.015411 4.2e-05 0 -0.011753 0 2650 
2438 1 -0.00619389 0.00724889 -0.0151426 0.000423 -0.00468347 -0.000292455 -0.00123863 2650 
3150 1 -0.00205402 0.0101768 -0.0156622 0.000116 -0.0182263 -0.0087302 -0.0269448 2650 
70 1 -0.00304147 0.0129838 -0.0156013 0.000116 0.0560864 0.0328811 0.00597028 2650 
2793 1 -0.000953657 0.0130136 -0.0152021 0.000423 0.00400332 0.0260717 0.000754087 2650 
93 1 -0.00603746 0.0198589 -0.0156901 0.000116 0.0714693 0.0500535 -0.0191255 2650 
2466 1 -0.00342145 0.0224505 -0.0153266 0.000423 0.0618857 0.0331724 -0.00268308 2650 
1776 1 -0.00581785 0.0241266 -0.0154742 0.000423 -0.019036 0.131664 0.086751 2650 
2585 1 -0.00165219 0.0269023 -0.0150426 0.000116 -0.0221426 0.0759057 0.0070692 2650 
1717 1 -0.00388629 0.0302383 -0.0157548 0.000116 -0.014717 0.0706098 -0.0348682 2650 
3093 1 -0.0670582 -0.0152332 -0.0143566 0.000423 -0.928902 -0.370983 4.32767 2650 
4244 1 -0.00294452 -0.00309091 -0.0142764 0.000116 -0.0436806 -0.00994679 0.0125723 2650 
736 1 -0.00835422 -0.0016078 -0.0143006 0.000116 -0.0307431 -0.0170391 0.0144389 2650 
1053 1 -0.007469 -0.00231398 -0.014946 0.000116 0 -0.011753 0 2650 
3011 1 -0.000602168 -0.00225669 -0.0144931 0.000423 0.0180353 -0.0317081 -0.0392676 2650 
1763 1 -0.00405042 -0.001154 -0.0143098 0.000656 0.0110508 0.03864 0.047043 2650 
509 1 -0.00779755 -0.00075257 -0.0143033 0.000116 -0.00480979 -0.0076817 0.0108723 2650 
2666 1 -0.00778805 0.00168305 -0.0144675 0.000423 -0.0290348 0.0911014 -0.0393087 2650 
857 1 -0.00694459 0.00322009 -0.0148062 0.000116 -0.0623021 0.0193526 0.00200378 2650 
3787 1 -0.00682367 0.00399093 -0.0143816 0.000116 -0.0024271 -0.00223267 -0.0195234 2650 
1192 1 -0.00727571 0.00631375 -0.0149163 0.000116 0.00510585 0.0133553 0.012363 2650 
1827 1 -0.0033488 0.00787166 -0.0143816 0.000116 0.0445821 -0.0304485 -0.00868089 2650 
3364 1 -0.00676707 0.00838127 -0.0145142 0.000116 -0.00179506 0.0163753 -0.0232219 2650 
581 1 -0.00560343 0.00809445 -0.0144698 0.000423 0.000441693 0.00100922 0.00165067 2650 
233 1 -0.00350947 0.00888592 -0.0146626 0.000423 0.00841442 -0.00267664 0.00454736 2650 
86 1 -0.00485025 0.0107959 -0.0149415 0.000116 -0.0196067 0.0126222 0.000798653 2650 
2969 1 -0.00258947 0.0108406 -0.0148989 0.000656 -0.00667616 0.014076 0.00443217 2650 
2781 1 -0.00583295 0.0112062 -0.0149645 0.000423 0.00977627 0.0105103 0.0120467 2650 
2191 1 -0.00218408 0.0134032 -0.0142283 4.2e-05 -0.0219515 0.010649 -0.0334451 2650 
3838 1 -0.00523234 0.0139317 -0.0149857 0.000656 0.0059045 0.0308137 -0.0288407 2650 
1228 1 -0.00242904 0.0134639 -0.014757 0.000423 -0.0165199 0.0339339 0.00467854 2650 
3644 1 -0.00129767 0.0140572 -0.0148321 0.000423 -0.00424564 0.0328325 0.0133159 2650 
2924 1 -0.00870987 0.0164886 -0.0142975 0.000116 -0.0500795 0.0331408 0.0243033 2650 
4234 1 -0.00484963 0.0335543 -0.0146329 0.000116 0.00512064 0.0508026 0.0366661 2650 
1195 1 -0.00356804 0.0343286 -0.0148309 0.000116 0.0557766 0.0782116 -0.0138054 2650 
2863 1 -0.000270234 0.0558718 -0.0145393 0.000656 0.082673 0.111978 0.0235271 2650 
4187 1 -0.0672836 -0.0427017 -0.0132621 0.000423 -1.7017 -0.072394 8.54579 2650 
3688 1 -0.0675875 -0.0328635 -0.0133006 0.000116 -1.15922 -0.563905 5.87387 2650 
3882 1 -0.0115129 -0.00410478 -0.014175 0.000423 -0.694679 -0.227889 -0.972293 2650 
1991 1 -0.00826946 0.000194776 -0.0138754 0.000656 -0.0192457 -0.00223252 0.00858771 2650 
2609 1 -0.00839493 0.00106674 -0.0135602 0.000116 -0.00705034 0.0126459 0.00789545 2650 
2473 1 -0.00861968 0.00177663 -0.0139522 0.000423 -0.0442117 0.037927 0.0421781 2650 
2913 1 -0.0095049 0.00328782 -0.0135168 0.000116 -0.0031719 -0.0208365 0.00893463 2650 
763 1 -0.00715677 0.00354315 -0.0136395 4.2e-05 -0.0107376 -0.0192397 -0.014763 2650 
220 1 -0.00332272 0.0036309 -0.0137865 4.2e-05 0.00197382 0.00663681 0.00671825 2650 
3446 1 -8.48625e-05 0.00330458 -0.0134326 0.000423 0.016221 -0.0142776 -0.00742368 2650 
1288 1 -0.002467 0.00525702 -0.014044 0.000116 0 -0.011753 0 2650 
3515 1 -0.00849064 0.00646117 -0.0136714 0.000656 -0.00454215 -0.00749919 0.00616721 2650 
1618 1 -0.00953787 0.0075998 -0.0138078 0.000116 0.0059414 0.00192455 -0.00369393 2650 
1769 1 -0.00851028 0.00795793 -0.0137709 0.000656 -0.00763615 -0.00751468 0.00847974 2650 
4368 1 -0.000317459 0.00863847 -0.0138865 0.000116 0.0213285 8.20602e-05 -0.0260591 2650 
4190 1 -0.00920379 0.00934278 -0.0136724 0.000423 -0.00788233 0.00684233 0.00501954 2650 
842 1 -0.00768364 0.00887222 -0.0137533 0.000116 -0.0132472 -0.000581938 -0.0143857 2650 
1409 1 -0.000465701 0.00903148 -0.0138815 0.000116 -0.00338114 -0.0124825 -0.00177889 2650 
793 1 -1.69013e-06 0.00931171 -0.0137196 0.000423 -0.00384688 0.00642406 -0.0108379 2650 
1476 1 -0.00754393 0.0100721 -0.0134213 0.000423 -0.00236736 0.00331055 0.000231161 2650 
289 1 -0.00356279 0.010068 -0.0139121 0.000116 -0.0130397 0.0193908 0.0119694 2650 
3500 1 -0.00501651 0.0108225 -0.0137375 4.2e-05 -0.0484689 0.00233787 0.0298831 2650 
2453 1 -0.00599367 0.0120088 -0.0139869 0.000423 0.00287214 0.0261989 -0.0126472 2650 
1802 1 -0.00329993 0.0123975 -0.0139265 0.000423 0.00500259 -0.000364755 -0.0111755 2650 
2345 1 -0.00146751 0.0135744 -0.0134553 0.000423 -0.0175833 0.0131789 -0.0282092 2650 
128 1 -0.000676032 0.0136193 -0.0137561 0.000423 -0.0122377 0.0336028 -0.0162643 2650 
3145 1 -0.00893293 0.0145772 -0.0140788 0.000116 -0.0186098 0.0309384 -0.020461 2650 
3471 1 -0.00750873 0.0143205 -0.0137001 0.000116 0.00654915 0.0415659 -0.0136084 2650 
1839 1 -0.00637926 0.016118 -0.013819 0.000116 -0.0676852 0.0211351 0.0188737 2650 
3973 1 -0.00677648 0.0426629 -0.0140724 0.000423 -0.0294603 0.112835 -0.0424766 2650 
3588 1 -0.000578773 0.0427839 -0.013856 0.000116 0.181107 0.0152304 0.0217687 2650 
4010 1 -0.00628123 0.0445859 -0.0139279 0.000116 0.0373387 0.0604042 0.0259593 2650 