LIGGGHTS (Version LIGGGHTS-PFM 23.02, compiled 2024-04-24-13:22:52 by serperd1, git commit unknown, based on LAMMPS 23 Nov 2013)
SURFACE/DEFAULT loaded
HERTZ loaded
TANGENTIAL/HISTORY loaded
Created orthogonal box = (-0.15 -0.15 -0.15) to (0.15 0.06 0.15)
  4 by 2 by 5 MPI processor grid

Reading STL file 'in_cap.stl' 

Reading STL file 'cone.stl' 

Reading STL file 'trial_2.stl' 

Reading STL file 'in_cyl.stl' 

Reading STL file 'top_cyl.stl' 

Reading STL file 'bot_cyl.stl' 

Reading STL file 'bottom_disk.stl' 

Reading STL file 'top_disk.stl' 
SURFACE/DEFAULT loaded
HERTZ loaded
TANGENTIAL/HISTORY loaded
Fix particledistribution/discrete (id prob_par): distribution based on mass%:
    r_0to10p: d=8.400000e-05 (max. bounding sphere) mass%=10.000000%
    r_10to50p: d=2.320000e-04 (max. bounding sphere) mass%=40.000000%
    r_50to90p: d=8.460000e-04 (max. bounding sphere) mass%=40.000000%
    r_90to100p: d=1.312000e-03 (max. bounding sphere) mass%=10.000000%
Fix particledistribution/discrete (id prob_par): distribution based on number%:
    r_0to10p: d=8.400000e-05 (max. bounding sphere) number%=83.749420%
    r_10to50p: d=2.320000e-04 (max. bounding sphere) number%=15.900680%
    r_50to90p: d=8.460000e-04 (max. bounding sphere) number%=0.327921%
    r_90to100p: d=1.312000e-03 (max. bounding sphere) number%=0.021980%
Setting up run ...
Import and parallelization of mesh in_cap_mesh containing 450 triangle(s) successful
Import and parallelization of mesh cone_mesh containing 868 triangle(s) successful
Import and parallelization of mesh filter_mesh_walls containing 181252 triangle(s) successful
Import and parallelization of mesh inlet_cyl_wall_mesh containing 1064 triangle(s) successful
Import and parallelization of mesh top_cyl_wall_mesh containing 682 triangle(s) successful
Import and parallelization of mesh bot_cyl_wall_mesh containing 1280 triangle(s) successful
Import and parallelization of mesh bot_disk_wall_mesh containing 1682 triangle(s) successful
Import and parallelization of mesh top_disk_wall_mesh containing 1144 triangle(s) successful
Memory usage per processor = 1168.02 Mbytes
Step Temp E_pair E_mol TotEng Press 
       0            0            0            0            0            0 
Loop time of 7.32128e-05 on 40 procs for 0 steps with 0 atoms
Max time of 0.000160358 on 40 procs for 0 steps with 0 atoms

Pair  time (%) = 0 (0)
Max Pair time (ib) = 0 (0)
Neigh time (%) = 0 (0)
Max Neigh time (ib) = 0 (0)
Comm  time (%) = 0 (0)
Max Comm time (ib) = 0 (0)
Outpt time (%) = 0 (0)
Max Outpt time (ib) = 0 (0)
Other time (%) = 7.32128e-05 (100)
Max Other time (ib) = 0.000160358 (119.03)

Nlocal:    0 ave 0 max 0 min
Histogram: 40 0 0 0 0 0 0 0 0 0
Nghost:    0 ave 0 max 0 min
Histogram: 40 0 0 0 0 0 0 0 0 0
Neighs:    0 ave 0 max 0 min
Histogram: 40 0 0 0 0 0 0 0 0 0

Total # of neighbors = 0
Neighbor list builds = 0
Dangerous builds = 0
Setting up run ...
Memory usage per processor = 1168.02 Mbytes
Step Temp E_pair E_mol TotEng Press 
       0            0            0            0            0            0 
       1            0            0            0            0            0 
Loop time of 0.0180666 on 40 procs for 1 steps with 0 atoms
Max time of 0.0180687 on 40 procs for 1 steps with 0 atoms

Pair  time (%) = 1.08303e-06 (0.00599461)
Max Pair time (ib) = 2.065e-06 (90.6697)
Neigh time (%) = 0 (0)
Max Neigh time (ib) = 0 (0)
Comm  time (%) = 0.000236063 (1.30663)
Max Comm time (ib) = 0.000296561 (25.6277)
Outpt time (%) = 0.00211726 (11.7192)
Max Outpt time (ib) = 0.00217895 (2.91347)
Other time (%) = 0.0157122 (86.9682)
Max Other time (ib) = 0.0177439 (12.9304)

Nlocal:    0 ave 0 max 0 min
Histogram: 40 0 0 0 0 0 0 0 0 0
Nghost:    0 ave 0 max 0 min
Histogram: 40 0 0 0 0 0 0 0 0 0
Neighs:    0 ave 0 max 0 min
Histogram: 40 0 0 0 0 0 0 0 0 0

Total # of neighbors = 0
Neighbor list builds = 0
Dangerous builds = 0
Scanning dump file ...
Reading snapshot from dump file ...
  orthogonal box = (-0.15 -0.15 -0.15) to (0.15 0.06 0.15)
  0 atoms before read
  4382 atoms in snapshot
  0 atoms purged
  0 atoms replaced
  0 atoms trimmed
  4382 atoms added
  4382 atoms after read
Setting atom values ...
  4382 settings made for type
  4382 settings made for density
  4382 settings made for vy
Setting up run ...
Memory usage per processor = 1172.68 Mbytes
Step Temp E_pair E_mol TotEng Press 
       1 2.250216e+12            0            0 2.0416084e-07 7.2014407e-06 
       2 2.7862136e+13            0            0 2.527916e-06 8.9168113e-05 
Loop time of 0.0154963 on 40 procs for 1 steps with 4382 atoms
Max time of 0.0155011 on 40 procs for 1 steps with 4382 atoms

Pair  time (%) = 3.54868e-06 (0.0229001)
Max Pair time (ib) = 5.597e-05 (1477.21)
Neigh time (%) = 0 (0)
Max Neigh time (ib) = 0 (0)
Comm  time (%) = 6.62122e-06 (0.0427278)
Max Comm time (ib) = 7.1461e-05 (979.272)
Outpt time (%) = 6.03349e-05 (0.38935)
Max Outpt time (ib) = 6.2329e-05 (3.3051)
Other time (%) = 0.0154258 (99.545)
Max Other time (ib) = 0.0154523 (0.17162)

Nlocal:    109.55 ave 2194 max 0 min
Histogram: 38 0 0 0 0 0 0 0 0 2
Nghost:    10 ave 210 max 0 min
Histogram: 38 0 0 0 0 0 0 0 0 2
Neighs:    34.35 ave 701 max 0 min
Histogram: 38 0 0 0 0 0 0 0 0 2

Total # of neighbors = 1374
Ave neighs/atom = 0.313555
Neighbor list builds = 0
Dangerous builds = 0
Setting up run ...
Memory usage per processor = 1172.68 Mbytes
Step Temp E_pair E_mol TotEng Press 
       2 2.7862136e+13            0            0 2.527916e-06 8.9168113e-05 
   32394 3.9698799e+15            0            0 0.00036018498  0.014765261 
Loop time of 537.791 on 40 procs for 32392 steps with 4382 atoms
Max time of 537.791 on 40 procs for 32392 steps with 4382 atoms

Pair  time (%) = 0.12094 (0.0224882)
Max Pair time (ib) = 2.19606 (1715.83)
Neigh time (%) = 0.582652 (0.108342)
Max Neigh time (ib) = 1.08174 (85.6573)
Comm  time (%) = 0.156621 (0.029123)
Max Comm time (ib) = 1.37182 (775.885)
Outpt time (%) = 5.15405e-05 (9.58375e-06)
Max Outpt time (ib) = 6.0392e-05 (17.1738)
Other time (%) = 536.931 (99.84)
Max Other time (ib) = 537.183 (0.0469315)

Nlocal:    109.55 ave 2192 max 0 min
Histogram: 38 0 0 0 0 0 0 0 0 2
Nghost:    10.075 ave 211 max 0 min
Histogram: 38 0 0 0 0 0 0 0 0 2
Neighs:    35.775 ave 728 max 0 min
Histogram: 38 0 0 0 0 0 0 0 0 2

Total # of neighbors = 1431
Ave neighs/atom = 0.326563
Neighbor list builds = 316
Dangerous builds = 0
Setting up run ...
Memory usage per processor = 1172.98 Mbytes
Step Temp E_pair E_mol TotEng Press 
   32394 3.9698799e+15            0            0 0.00036018498  0.014756749 
12309720 2.333326e+17            0            0  0.021170137   0.74674235 
Loop time of 219133 on 40 procs for 12277326 steps with 4289 atoms
Max time of 219133 on 40 procs for 12277326 steps with 4289 atoms

Pair  time (%) = 45.8982 (0.0209454)
Max Pair time (ib) = 661.041 (1340.23)
Neigh time (%) = 68.7386 (0.0313685)
Max Neigh time (ib) = 122.396 (78.0601)
Comm  time (%) = 105.444 (0.0481188)
Max Comm time (ib) = 488.706 (363.474)
Outpt time (%) = 8.25626 (0.0037677)
Max Outpt time (ib) = 12.219 (47.9973)
Other time (%) = 218904 (99.8958)
Max Other time (ib) = 219027 (0.0560238)

Nlocal:    107.225 ave 1805 max 0 min
Histogram: 37 1 0 0 0 0 0 0 0 2
Nghost:    7.2 ave 126 max 0 min
Histogram: 38 0 0 0 0 0 0 0 1 1
Neighs:    29.075 ave 527 max 0 min
Histogram: 38 0 0 0 0 0 0 0 0 2

Total # of neighbors = 1163
Ave neighs/atom = 0.271159
Neighbor list builds = 39534
Dangerous builds = 0
