ITEM: TIMESTEP
40000
ITEM: NUMBER OF ATOMS
2483
ITEM: BOX BOUNDS ff ff ff
-0.005905 0.167905
-0.000656 0.011154
-0.005905 0.167905
ITEM: ATOMS id type x y z radius vx vy vz density 
2317 1 0.014297 0.000715364 0.001071 0.000423 0 2.23961 0 2650 
2078 1 0.019324 0.00052007 0.000953 0.000116 0 -7 0 2650 
1188 1 0.020639 0.00077507 0.000927 0.000116 0 -7 0 2650 
1551 1 0.0854645 0.000932991 0.000959819 0.000656 0.551287 1.97103 -0.133068 2650 
84 1 0.108185 0.000897474 0.001133 0.000656 0 2.23968 0 2650 
1756 1 0.004144 0.00132807 0.000832 0.000423 0 -7 0 2650 
65 1 0.027038 0.00164007 0.001133 0.000116 0 -7 0 2650 
820 1 0.110174 0.00116007 0.001096 0.000656 0 -7 0 2650 
2391 1 0.018068 8.14815e-05 0.001955 4.2e-05 0 2.23757 0 2650 
2403 1 0.006528 0.000691689 0.001419 0.000423 0 2.23961 0 2650 
1432 1 0.016035 0.000716645 0.001465 0.000423 0 2.23961 0 2650 
2340 1 0.031543 0.00082007 0.001662 0.000116 0 -7 0 2650 
692 1 0.038362 0.00060407 0.001808 0.000116 0 -7 0 2650 
213 1 0.044271 0.000525319 0.001469 0.000423 0 2.23963 0 2650 
886 1 0.0835683 0.000758242 0.00156227 0.000423 -1.18665 -6.65445 0.444127 2650 
666 1 0.0843344 0.000548643 0.00122116 0.000423 -0.86956 -6.34312 0.0521945 2650 
1136 1 0.0940003 0.000498278 0.00161963 0.000423 0.000643196 2.23497 0.0606212 2650 
1974 1 0.073895 0.00086407 0.001874 0.000423 0 -7 0 2650 
355 1 0.111145 0.00107607 0.001866 0.000423 0 -7 0 2650 
2142 1 0.126502 0.00173607 0.001576 0.000656 0 -7 0 2650 
1776 1 0.021661 0.000334475 0.002691 0.000116 0 2.23849 0 2650 
240 1 0.0513412 0.000507067 0.00255154 0.000423 -1.33738 -4.30558 -1.8943 2650 
2298 1 0.077914 0.00077507 0.002756 0.000116 0 -7 0 2650 
1422 1 0.104327 0.000394552 0.002201 0.000116 0 2.23815 0 2650 
652 1 0.10982 0.000464528 0.002424 0.000423 0 2.23961 0 2650 
985 1 0.116858 0.000231861 0.002415 0.000116 0 2.23917 0 2650 
94 1 0.127492 0.000273379 0.002577 0.000116 0 2.23825 0 2650 
1752 1 0.130965 0.00047407 0.002114 4.2e-05 0 -7 0 2650 
1066 1 0.011114 0.00148407 0.002419 0.000116 0 -7 0 2650 
1274 1 0.018553 0.00110207 0.002496 0.000423 0 -7 0 2650 
2049 1 0.084987 0.00154707 0.002439 0.000116 0 -7 0 2650 
1138 1 0.101697 0.00117407 0.002616 0.000423 0 -7 0 2650 
1664 1 0.158101 0.00165807 0.002099 0.000116 0 -7 0 2650 
1524 1 0.0221185 0.000679214 0.00304246 0.000423 0.080252 2.08615 -0.0332681 2650 
300 1 0.052009 0.00042257 0.00349741 0.000423 1.26719 0.153528 1.79488 2650 
2089 1 0.055205 0.00085907 0.003367 4.2e-05 0 -7 0 2650 
840 1 0.080646 0.00054507 0.003038 0.000116 0 -7 0 2650 
2174 1 0.086202 0.000311188 0.003033 0.000116 0 2.23914 0 2650 
254 1 0.0943 0.00024012 0.003434 0.000116 0 2.23815 0 2650 
1208 1 0.0214209 0.000946266 0.00333164 0.000116 -3.89137 0.441907 1.61315 2650 
2182 1 0.022247 0.00095707 0.003465 4.2e-05 0 -7 0 2650 
2459 1 0.074324 0.00104907 0.003444 0.000116 0 -7 0 2650 
658 1 0.150029 0.00145307 0.003124 0.000116 0 -7 0 2650 
1370 1 0.042611 0.00051307 0.00377 0.000116 0 -7 0 2650 
1764 1 0.1048 0.00069407 0.003935 0.000423 0 -7 0 2650 
824 1 0.126159 0.000673437 0.003789 0.000423 0 2.23948 0 2650 
648 1 0.133881 0.000600402 0.00424937 0.000423 0.0838685 2.08917 0.0275692 2650 
1356 1 0.137275 0.000544207 0.00372831 0.000423 1.37945 -4.05224 -1.85569 2650 
1932 1 0.141016 0.000883077 0.003702 0.000656 0 2.23969 0 2650 
1816 1 0.147786 0.000503561 0.003726 0.000423 0 2.23961 0 2650 
361 1 0.001268 0.00104207 0.003827 0.000116 0 -7 0 2650 
365 1 0.014662 0.00129107 0.003871 0.000656 0 -7 0 2650 
1606 1 0.035843 0.00158607 0.003632 0.000423 0 -7 0 2650 
2047 1 0.04232 0.00098007 0.003987 0.000423 0 -7 0 2650 
980 1 0.06939 0.00100498 0.003991 0.000656 0 2.23968 0 2650 
95 1 0.133386 0.000948856 0.00408658 0.000116 -4.06674 0.294724 -1.33682 2650 
585 1 0.143349 0.00109607 0.004178 4.2e-05 0 -7 0 2650 
573 1 0.117631 0.000122332 0.005072 4.2e-05 0 2.23579 0 2650 
892 1 0.022388 0.000729032 0.00488024 0.000423 1.10358 3.23863 -2.45554 2650 
2366 1 0.108993 0.00082707 0.004482 0.000423 0 -7 0 2650 
1123 1 0.134858 0.000446932 0.004516 0.000423 0 2.23963 0 2650 
916 1 0.13661 0.000435388 0.00462317 0.000423 -1.264 0.226579 1.70038 2650 
345 1 0.146378 0.000537476 0.004988 0.000423 0 2.23961 0 2650 
1883 1 0.158442 0.00066707 0.004964 0.000423 0 -7 0 2650 
1679 1 0.042503 0.00115907 0.005076 0.000116 0 -7 0 2650 
188 1 0.064849 0.00134607 0.005091 0.000423 0 -7 0 2650 
1635 1 0.088691 0.00145807 0.004515 0.000423 0 -7 0 2650 
2258 1 0.115895 0.00120507 0.00444 0.000656 0 -7 0 2650 
176 1 0.001438 0.00173907 0.00443 0.000116 0 -7 0 2650 
424 1 0.061715 0.00166407 0.005053 0.000423 0 -7 0 2650 
1277 1 0.075006 0.00170107 0.005099 0.000116 0 -7 0 2650 
1814 1 0.131875 0.00167107 0.004611 0.000116 0 -7 0 2650 
2050 1 0.0531588 0.00287631 0.00447033 0.000423 -5.51865 -1.1639 -1.19652 2650 
619 1 0.005763 0.00052307 0.005778 0.000116 0 -7 0 2650 
1061 1 0.022019 0.000312958 0.00551835 0.000423 -1.10358 -0.639553 -4.90406 2650 
1446 1 0.033447 0.00070207 0.005416 0.000116 0 -7 0 2650 
1806 1 0.067083 0.000668958 0.005229 0.000423 0 2.23948 0 2650 
1040 1 0.099414 0.000721749 0.005841 0.000423 0 2.23951 0 2650 
779 1 0.0577082 0.00117474 0.0054567 0.000423 3.85388 4.10676 0.835576 2650 
2305 1 0.06562 0.00116007 0.005446 0.000116 0 -7 0 2650 
1659 1 0.055425 0.00177807 0.005474 0.000116 0 -7 0 2650 
1410 1 0.150839 5.74938e-05 0.006562 4.2e-05 0 2.23579 0 2650 
831 1 0.025684 0.000485644 0.00637 0.000423 0 2.23961 0 2650 
1820 1 0.09489 0.000236357 0.006065 4.2e-05 0 2.23579 0 2650 
104 1 0.020242 0.00137907 0.006244 0.000423 0 -7 0 2650 
1819 1 0.038335 0.00157407 0.006672 0.000116 0 -7 0 2650 
1627 1 0.076565 0.00094407 0.006259 0.000116 0 -7 0 2650 
1963 1 0.083996 0.00155607 0.006477 4.2e-05 0 -7 0 2650 
2111 1 0.136698 0.00088507 0.006144 0.000423 0 -7 0 2650 
628 1 0.073589 0.00167207 0.006621 0.000423 0 -7 0 2650 
218 1 0.080191 0.00174407 0.006156 0.000423 0 -7 0 2650 
1852 1 0.154146 0.00177107 0.005953 0.000423 0 -7 0 2650 
2128 1 0.115633 0.000117342 0.006908 0.000116 0 2.23849 0 2650 
1909 1 0.018376 0.000376741 0.007196 0.000423 0 -1.28068 0 2650 
2425 1 0.026329 0.00027507 0.006758 0.000116 0 -7 0 2650 
1531 1 0.029084 0.000410575 0.007413 0.000423 0 -6.3763 0 2650 
1307 1 0.035736 0.000212946 0.006764 0.000116 0 2.23825 0 2650 
2234 1 0.053132 0.000712491 0.007104 0.000423 0 2.23965 0 2650 
352 1 0.101417 0.000612342 0.007459 0.000423 0 2.23961 0 2650 
1233 1 0.008632 0.00145107 0.007405 0.000423 0 -7 0 2650 
1810 1 0.043944 0.00161307 0.007253 0.000116 0 -7 0 2650 
575 1 0.113515 0.00140407 0.006827 0.000423 0 -7 0 2650 
1387 1 0.140551 0.00159507 0.007306 0.000423 0 -7 0 2650 
960 1 0.00685 0.00173507 0.006958 0.000116 0 -7 0 2650 
554 1 0.003153 0.000106681 0.007568 4.2e-05 0 2.23579 0 2650 
917 1 0.028712 0.000126296 0.008079 0.000116 0 2.23849 0 2650 
706 1 0.0609588 0.000821916 0.00800379 0.000423 0.265473 2.54909 -0.409458 2650 
18 1 0.083283 0.000107544 0.007617 0.000116 0 -4.59934 0 2650 
1960 1 0.094905 0.000603706 0.008097 0.000423 0 2.23963 0 2650 
1159 1 0.150815 0.00044107 0.007685 0.000423 0 -7 0 2650 
881 1 0.115498 0.00242037 0.00763107 0.000656 0.207126 -0.626163 -2.2878 2650 
2093 1 0.133208 0.00176307 0.007989 0.000423 0 -7 0 2650 
1517 1 0.004885 0.000538757 0.008365 0.000423 0 2.23963 0 2650 
2385 1 0.028383 0.00067007 0.008775 0.000423 0 -7 0 2650 
366 1 0.039524 0.000723364 0.008361 0.000423 0 2.23961 0 2650 
1946 1 0.09912 0.00060707 0.009084 4.2e-05 0 -7 0 2650 
200 1 0.105457 0.000437653 0.008332 0.000423 0 2.23961 0 2650 
1353 1 0.135932 0.00078901 0.009076 0.000656 0 2.23969 0 2650 
1173 1 0.152246 0.00072307 0.009042 4.2e-05 0 -7 0 2650 
2121 1 0.1556 0.00014107 0.008517 4.2e-05 0 -7 0 2650 
508 1 0.101133 0.00130907 0.008449 0.000656 0 -7 0 2650 
552 1 0.105392 0.00144007 0.008479 0.000423 0 -7 0 2650 
157 1 0.135811 0.00156507 0.00903 4.2e-05 0 -7 0 2650 
5 1 0.137396 0.00139707 0.008337 0.000116 0 -7 0 2650 
2264 1 0.159154 0.00137107 0.008714 0.000116 0 -7 0 2650 
967 1 0.045216 0.00169007 0.009072 0.000423 0 -7 0 2650 
337 1 0.078317 0.00176107 0.00903 0.000656 0 -7 0 2650 
990 1 0.10278 0.00214915 0.00890151 0.000116 14.0617 -4.82552 -14.5256 2650 
404 1 0.117705 0.000707029 0.009716 0.000423 0 2.23948 0 2650 
1881 1 0.119492 0.00081607 0.009255 0.000656 0 -7 0 2650 
1412 1 0.145768 0.00019607 0.009397 0.000116 0 -7 0 2650 
2197 1 0.028611 0.00129207 0.009305 0.000423 0 -7 0 2650 
165 1 0.041117 0.00103507 0.009537 0.000116 0 -7 0 2650 
2015 1 0.098067 0.00134107 0.009838 0.000116 0 -7 0 2650 
1194 1 0.138262 0.00137007 0.009231 0.000116 0 -7 0 2650 
1688 1 0.141376 0.00176307 0.009894 0.000656 0 -7 0 2650 
1163 1 0.038505 0.000113982 0.010104 4.2e-05 0 2.23441 0 2650 
623 1 0.017229 0.000517954 0.010022 0.000423 0 2.23951 0 2650 
2294 1 0.067079 0.000660655 0.010632 0.000423 0 2.23961 0 2650 
396 1 0.0938282 0.000644431 0.0103126 4.2e-05 -0.324831 3.51971 25.1146 2650 
1418 1 0.11782 0.00068407 0.010281 0.000116 0 -7 0 2650 
2145 1 0.122214 0.00075707 0.010227 0.000423 0 -7 0 2650 
1335 1 0.129495 0.000191212 0.009967 0.000116 0 2.23849 0 2650 
866 1 0.150967 0.000495245 0.010212 0.000423 0 2.23965 0 2650 
691 1 0.065911 0.00137407 0.010344 0.000423 0 -7 0 2650 
59 1 0.080657 0.00155107 0.010435 0.000656 0 -7 0 2650 
177 1 0.102003 0.00089507 0.01063 0.000423 0 -7 0 2650 
784 1 0.122883 0.00162007 0.009976 0.000423 0 -7 0 2650 
1455 1 0.069014 0.00168207 0.010395 0.000656 0 -7 0 2650 
212 1 0.148551 0.00176907 0.010262 0.000423 0 -7 0 2650 
1984 1 0.0762797 8.32827e-06 0.010928 0.000116 -6.89471 -0.105294 0 2650 
1424 1 0.018389 0.000465488 0.010884 0.000423 0 2.23961 0 2650 
859 1 0.020765 0.00058507 0.011218 0.000423 0 -7 0 2650 
2442 1 0.061003 0.000219976 0.011176 0.000116 0 2.23815 0 2650 
278 1 0.078922 0.000305375 0.011437 0.000116 0 2.23849 0 2650 
2046 1 0.131482 0.000305753 0.01085 0.000116 0 2.23917 0 2650 
1134 1 0.141049 0.00015007 0.010696 4.2e-05 0 -7 0 2650 
2373 1 0.056707 0.00133507 0.011468 4.2e-05 0 -7 0 2650 
1548 1 0.098569 0.00101807 0.010796 0.000116 0 -7 0 2650 
1842 1 0.128813 0.00119607 0.011369 0.000116 0 -7 0 2650 
650 1 0.131566 0.00095907 0.010901 4.2e-05 0 -7 0 2650 
1717 1 0.139512 0.00094407 0.011002 4.2e-05 0 -7 0 2650 
972 1 0.159836 0.00131007 0.011222 0.000423 0 -7 0 2650 
1535 1 0.115169 0.00364437 0.0112655 0.000423 -0.523904 9.84484 5.78676 2650 
460 1 0.003722 0.00049307 0.011587 0.000423 0 -7 0 2650 
1542 1 0.041337 0.000664813 0.011979 0.000423 0 2.23961 0 2650 
219 1 0.04317 0.00058407 0.011985 0.000116 0 -7 0 2650 
1236 1 0.093684 0.00044607 0.011569 0.000423 0 -7 0 2650 
67 1 0.096194 0.000901326 0.011854 0.000656 0 2.23979 0 2650 
2205 1 0.125225 0.000281692 0.012172 0.000116 0 2.23824 0 2650 
966 1 0.140948 0.000351718 0.011888 0.000116 0 2.23825 0 2650 
2067 1 0.141648 0.000690396 0.011964 0.000423 0 2.23951 0 2650 
1112 1 0.151852 0.000214443 0.012176 4.2e-05 0 2.2374 0 2650 
2390 1 0.033791 0.00124207 0.012191 0.000116 0 -7 0 2650 
1733 1 0.093161 0.00155007 0.012041 0.000116 0 -7 0 2650 
1899 1 0.094192 0.00096407 0.011639 0.000116 0 -7 0 2650 
605 1 0.119613 0.00103807 0.011647 0.000116 0 -7 0 2650 
1886 1 0.024919 0.00175807 0.01171 0.000116 0 -7 0 2650 
597 1 0.052746 0.00040761 0.012275 0.000423 0 2.7566 0 2650 
2040 1 0.0713332 0.000524807 0.0126218 0.000116 -0.83955 4.01824 -1.40681 2650 
723 1 0.135627 0.000280407 0.012992 0.000116 0 2.23815 0 2650 
1396 1 0.149437 0.000681136 0.012358 0.000423 0 2.23965 0 2650 
197 1 0.001978 0.00107207 0.012413 4.2e-05 0 -7 0 2650 
2495 1 0.004327 0.00087307 0.013029 0.000423 0 -7 0 2650 
895 1 0.045265 0.00134107 0.012269 0.000656 0 -7 0 2650 
738 1 0.077063 0.00096607 0.012617 0.000423 0 -7 0 2650 
294 1 0.083181 0.00101407 0.012766 0.000423 0 -7 0 2650 
2175 1 0.099879 0.00114007 0.012522 0.000116 0 -7 0 2650 
489 1 0.047522 0.00176607 0.012445 0.000423 0 -7 0 2650 
1205 1 0.074386 0.00167007 0.012556 0.000116 0 -7 0 2650 
794 1 0.101794 0.00176307 0.012964 0.000656 0 -7 0 2650 
1598 1 0.140638 0.00168007 0.012616 0.000116 0 -7 0 2650 
2436 1 0.084941 0.00011798 0.013757 0.000116 0 2.23815 0 2650 
1284 1 0.020685 0.000688812 0.013078 0.000423 0 2.23963 0 2650 
2120 1 0.056455 0.000631219 0.013138 0.000423 0 2.23961 0 2650 
1833 1 0.115349 0.000514434 0.013093 0.000423 0 2.23948 0 2650 
1601 1 0.129629 0.00034207 0.013243 0.000116 0 -7 0 2650 
1649 1 0.14757 0.000552195 0.013797 0.000423 0 2.23963 0 2650 
1719 1 0.032653 0.00142807 0.013588 0.000423 0 -7 0 2650 
2243 1 0.046104 0.00101074 0.013449 0.000656 0 2.23969 0 2650 
265 1 0.051603 0.00120207 0.013845 0.000116 0 -7 0 2650 
459 1 0.065523 0.00121707 0.013362 0.000116 0 -7 0 2650 
2302 1 0.075182 0.00135207 0.013287 0.000423 0 -7 0 2650 
1385 1 0.09883 0.00097507 0.013076 0.000116 0 -7 0 2650 
1348 1 0.132843 0.00147907 0.013729 0.000116 0 -7 0 2650 
954 1 0.0719257 0.00166843 0.0136145 0.000656 0.00663409 -6.96921 0.0111166 2650 
1241 1 0.080082 0.00169407 0.01365 0.000116 0 -7 0 2650 
1801 1 0.010927 0.00062907 0.014115 0.000423 0 -7 0 2650 
610 1 0.039545 0.000394996 0.013854 0.000423 0 2.86141 0 2650 
412 1 0.055062 0.000677291 0.014355 0.000423 0 2.23961 0 2650 
1452 1 0.057611 0.00041907 0.014495 0.000116 0 -7 0 2650 
1458 1 0.142812 0.000188036 0.014111 0.000116 0 2.23914 0 2650 
1257 1 0.1497 0.000257071 0.014178 0.000116 0 2.23824 0 2650 
2097 1 0.157939 0.00085107 0.014523 4.2e-05 0 -7 0 2650 
27 1 0.030797 0.00093207 0.014592 0.000116 0 -7 0 2650 
48 1 0.035058 0.00092107 0.013916 0.000116 0 -7 0 2650 
1135 1 0.075772 0.00099307 0.014316 0.000423 0 -7 0 2650 
630 1 0.10425 0.00122707 0.014428 0.000116 0 -7 0 2650 
152 1 0.048531 0.00171607 0.014359 0.000116 0 -7 0 2650 
1931 1 0.102655 0.00175507 0.014112 4.2e-05 0 -7 0 2650 
790 1 0.126922 0.00169507 0.01428 0.000116 0 -7 0 2650 
1790 1 0.014573 0.00033358 0.015413 0.000116 0 2.23914 0 2650 
616 1 0.060796 0.00081107 0.014808 0.000116 0 -7 0 2650 
211 1 0.124407 0.000584187 0.0149 0.000423 0 2.23961 0 2650 
2335 1 0.133151 0.000385849 0.01467 0.000423 0 -3.64248 0 2650 
146 1 0.156933 0.000745497 0.015215 0.000656 0 2.23971 0 2650 
1002 1 0.008661 0.00162307 0.015305 0.000116 0 -7 0 2650 
1998 1 0.04633 0.00146407 0.01483 4.2e-05 0 -7 0 2650 
1308 1 0.051143 0.00136207 0.015138 0.000116 0 -7 0 2650 
724 1 0.051952 0.00112807 0.015061 0.000116 0 -7 0 2650 
1484 1 0.053459 0.00162307 0.015164 0.000116 0 -7 0 2650 
1160 1 0.068631 0.00148607 0.014917 0.000423 0 -7 0 2650 
2042 1 0.087817 0.00151507 0.015033 0.000116 0 -7 0 2650 
1207 1 0.0966248 0.00119725 0.0152602 0.000656 -0.0777498 -7.01202 0.0803147 2650 
1673 1 0.014714 0.000387469 0.015963 0.000423 0 -3.91524 0 2650 
314 1 0.09027 0.000228929 0.016032 0.000116 0 2.23815 0 2650 
2091 1 0.104905 0.000881489 0.016209 0.000656 0 2.2398 0 2650 
582 1 0.146606 0.000739358 0.0156827 0.000423 0 2.44834 -9.44834 2650 
711 1 0.0252009 0.00105849 0.0160937 0.000423 -0.0664005 -7.03815 0.0555963 2650 
934 1 0.0258451 0.00142865 0.0155543 0.000423 0.0664005 -6.96185 -0.0555963 2650 
64 1 0.050143 0.00138507 0.015685 0.000116 0 -7 0 2650 
418 1 0.149012 0.00150007 0.015862 0.000423 0 -7 0 2650 
2177 1 0.11132 0.00172407 0.015853 0.000423 0 -7 0 2650 
587 1 0.04028 0.000172396 0.016356 4.2e-05 0 2.23441 0 2650 
1602 1 0.042847 0.000249774 0.016354 0.000116 0 2.23917 0 2650 
1440 1 0.051411 0.000845002 0.016331 0.000656 0 2.23969 0 2650 
1809 1 0.084202 0.000378609 0.016295 0.000423 0 -1.99111 0 2650 
783 1 0.124385 0.000622749 0.0165953 0.000656 0.0554466 1.99711 8.94166 2650 
1979 1 0.148755 0.0005138 0.016686 0.000423 0 2.23961 0 2650 
1228 1 0.0553258 0.000981098 0.0166921 0.000116 -12.4085 -12.759 19.1385 2650 
1258 1 0.086891 0.00154207 0.016661 0.000423 0 -7 0 2650 
1071 1 0.03269 0.00165107 0.016623 0.000116 0 -7 0 2650 
57 1 0.057367 0.00170607 0.016604 0.000423 0 -7 0 2650 
2246 1 0.079128 0.00166107 0.016383 4.2e-05 0 -7 0 2650 
413 1 0.0165882 0.000786738 0.0173672 0.000656 0.417779 -5.88259 -0.892294 2650 
198 1 0.073518 0.000544195 0.017315 0.000423 0 2.23961 0 2650 
505 1 0.079356 0.00049007 0.017099 0.000116 0 -7 0 2650 
2474 1 0.083353 0.00066507 0.017263 0.000116 0 -7 0 2650 
1537 1 0.088848 0.00045507 0.017169 0.000423 0 -7 0 2650 
1255 1 0.10282 0.000524673 0.0173391 0.000423 2.61258 1.7484 -0.751688 2650 
897 1 0.133624 0.000288797 0.017326 0.000116 0 2.23914 0 2650 
88 1 0.147006 0.00074207 0.017217 0.000423 0 -7 0 2650 
2192 1 0.0329716 0.00170997 0.0174672 0.000656 -6.87493 5.02947 -1.31107 2650 
1739 1 0.08215 0.00156507 0.01734 4.2e-05 0 -7 0 2650 
290 1 0.090462 0.00091407 0.017451 4.2e-05 0 -7 0 2650 
1481 1 0.103413 0.00120007 0.017641 0.000116 0 -7 0 2650 
753 1 0.106579 0.00098507 0.017074 0.000116 0 -7 0 2650 
269 1 0.115081 0.00136307 0.017289 0.000116 0 -7 0 2650 
1589 1 0.13054 0.00108207 0.01743 0.000116 0 -7 0 2650 
1439 1 0.160999 0.00137707 0.017183 4.2e-05 0 -7 0 2650 
922 1 0.101375 0.00181418 0.0175523 0.000423 -0.158534 4.66164 -0.876317 2650 
600 1 0.0161172 0.000417379 0.0183732 0.000423 -1.34699 0.761926 2.87691 2650 
943 1 0.039469 0.000395511 0.018546 0.000116 0 2.23815 0 2650 
2486 1 0.042163 0.000384598 0.018514 0.000423 0 2.42599 0 2650 
1887 1 0.063275 0.000552195 0.018064 0.000423 0 2.23963 0 2650 
1304 1 0.082867 0.000386746 0.018006 0.000423 0 2.57824 0 2650 
1211 1 0.099148 0.00039007 0.018421 0.000116 0 -7 0 2650 
359 1 0.125342 0.00039907 0.018465 0.000116 0 -7 0 2650 
1140 1 0.138462 0.00118004 0.0178635 0.000423 0.0943841 -7.03255 0.333599 2650 
72 1 0.01798 0.00059007 0.019191 0.000116 0 -7 0 2650 
1129 1 0.030015 0.000262501 0.019214 0.000116 0 2.23815 0 2650 
1058 1 0.033484 0.00059107 0.018874 0.000116 0 -7 0 2650 
1271 1 0.034605 0.000578421 0.019326 0.000423 0 2.23951 0 2650 
2290 1 0.058947 0.000900675 0.018645 0.000656 0 2.23969 0 2650 
976 1 0.091588 0.00063007 0.019221 0.000116 0 -7 0 2650 
1782 1 0.109585 0.000393773 0.018854 0.000423 0 2.84237 0 2650 
103 1 0.134585 0.000392676 0.01865 0.000116 0 2.23849 0 2650 
770 1 0.087399 0.00103207 0.018895 0.000116 0 -7 0 2650 
217 1 0.11624 0.00098407 0.01924 0.000116 0 -7 0 2650 
1989 1 0.0410449 0.00404814 0.0186524 0.000656 10.1656 1.11628 1.1651 2650 
2139 1 0.0986226 0.00483522 0.0193581 0.000423 -3.39704 -1.78174 1.97303 2650 
467 1 0.008277 0.000525319 0.020141 0.000423 0 2.23963 0 2650 
491 1 0.037832 0.000179372 0.020112 0.000116 0 2.23825 0 2650 
863 1 0.056957 0.000687855 0.019571 0.000423 0 2.23965 0 2650 
2453 1 0.070332 0.00039532 0.019926 0.000116 0 2.23917 0 2650 
255 1 0.111674 0.00060107 0.019727 0.000423 0 -7 0 2650 
635 1 0.124633 0.000393773 0.019499 0.000423 0 2.84237 0 2650 
1191 1 0.147173 0.00051807 0.019927 0.000423 0 -7 0 2650 
1380 1 0.012312 0.00104907 0.019777 0.000423 0 -7 0 2650 
327 1 0.019879 0.00140007 0.020058 0.000423 0 -7 0 2650 
1941 1 0.102976 0.00130107 0.019466 0.000116 0 -7 0 2650 
2423 1 0.0361061 0.00199976 0.0198926 0.000423 -0.524783 -4.75206 2.48221 2650 
809 1 0.022569 0.000131098 0.020657 0.000116 0 2.23917 0 2650 
501 1 0.149638 4.03948e-05 0.020687 4.2e-05 0 2.77215 0 2650 
1065 1 0.027926 0.00063154 0.020581 0.000423 0 2.23961 0 2650 
37 1 0.034376 0.00035207 0.020581 0.000116 0 -7 0 2650 
2085 1 0.051831 0.000379202 0.02068 0.000423 0 -2.17264 0 2650 
1643 1 0.072452 0.000638583 0.020494 0.000423 0 2.23965 0 2650 
2372 1 0.083067 0.00025607 0.020627 0.000116 0 -7 0 2650 
1849 1 0.097369 0.000452371 0.02094 0.000423 0 2.23961 0 2650 
1861 1 0.14233 0.00057907 0.020248 0.000116 0 -7 0 2650 
2245 1 0.084222 0.00135907 0.020706 0.000116 0 -7 0 2650 
2433 1 0.120631 0.00114207 0.020189 0.000116 0 -7 0 2650 
888 1 0.136044 0.00124407 0.020613 0.000423 0 -7 0 2650 
231 1 0.151138 0.00098007 0.020606 0.000423 0 -7 0 2650 
1493 1 0.014484 0.00173107 0.020771 0.000423 0 -7 0 2650 
2354 1 0.014959 0.00170107 0.020276 0.000116 0 -7 0 2650 
1217 1 0.018898 0.00175907 0.020259 0.000423 0 -7 0 2650 
1067 1 0.0167733 0.000825292 0.0210564 0.000423 -0.390084 2.45924 -0.821365 2650 
15 1 0.048347 0.000352383 0.021217 0.000116 0 2.23849 0 2650 
2451 1 0.048261 8.707e-05 0.021077 4.2e-05 0 -7 0 2650 
746 1 0.081277 0.00059307 0.020981 0.000116 0 -7 0 2650 
1292 1 0.094998 0.00057507 0.021521 0.000116 0 -7 0 2650 
2094 1 0.153133 0.000712491 0.021671 0.000423 0 2.23965 0 2650 
429 1 0.08347 0.00141407 0.021246 0.000423 0 -7 0 2650 
2172 1 0.121251 0.00144707 0.021576 0.000116 0 -7 0 2650 
1669 1 0.13613 0.00156307 0.02153 0.000423 0 -7 0 2650 
2349 1 0.144223 0.00103007 0.021596 0.000423 0 -7 0 2650 
111 1 0.145579 0.00178307 0.021193 0.000116 0 -7 0 2650 
1388 1 0.043546 0.000150049 0.022276 0.000116 11.3075 4.30748 0 2650 
38 1 0.0174769 0.000538986 0.0225378 0.000423 0.390905 2.01984 0.823094 2650 
751 1 0.020676 0.00055807 0.022507 0.000116 0 -7 0 2650 
2210 1 0.034314 0.00056407 0.022213 0.000116 0 -7 0 2650 
2416 1 0.041036 0.00082007 0.021765 0.000423 0 -7 0 2650 
1243 1 0.061472 0.000296724 0.021782 4.2e-05 0 2.23579 0 2650 
313 1 0.12468 0.00072907 0.022334 0.000116 0 -7 0 2650 
493 1 0.126871 0.00050607 0.022504 0.000423 0 -7 0 2650 
1994 1 0.142649 0.000445331 0.022027 0.000423 0 2.23961 0 2650 
1560 1 0.145212 0.000535559 0.022301 0.000423 0 2.23965 0 2650 
2123 1 0.020135 0.00111407 0.022133 0.000423 0 -7 0 2650 
674 1 0.042926 0.00147007 0.021928 0.000656 0 -7 0 2650 
2096 1 0.096139 0.00097007 0.022521 4.2e-05 0 -7 0 2650 
414 1 0.066167 0.00171007 0.021955 0.000116 0 -7 0 2650 
1986 1 0.066282 0.00021453 0.022706 4.2e-05 0 2.23441 0 2650 
2314 1 0.076991 0.000394914 0.022691 0.000116 0 2.23849 0 2650 
1246 1 0.080504 0.000327097 0.023289 0.000116 0 2.23825 0 2650 
1504 1 0.095192 0.00014707 0.022785 0.000116 0 -7 0 2650 
1895 1 0.107656 0.000280275 0.023279 4.2e-05 0 2.23729 0 2650 
1118 1 0.119151 0.000166589 0.022741 0.000116 0 2.23849 0 2650 
646 1 0.140105 0.00065607 0.023238 0.000423 0 -7 0 2650 
82 1 0.154961 0.00084907 0.023145 0.000423 0 -7 0 2650 
923 1 0.161252 0.00023607 0.023014 0.000116 0 -7 0 2650 
2270 1 0.000832 0.00122107 0.023295 0.000423 0 -7 0 2650 
993 1 0.028135 0.00090907 0.023309 0.000116 0 -7 0 2650 
1642 1 0.137147 0.00124207 0.023316 0.000423 0 -7 0 2650 
249 1 0.022254 0.00174807 0.0233 0.000116 0 -7 0 2650 
518 1 0.03397 0.000108546 0.023721 0.000116 0 2.87025 0 2650 
2115 1 0.016765 0.00037307 0.02409 0.000116 0 -7 0 2650 
1937 1 0.043278 0.000165304 0.023552 0.000116 0 2.23824 0 2650 
1456 1 0.076694 0.000368052 0.023974 0.000116 0 2.23849 0 2650 
879 1 0.116971 0.000285049 0.023556 4.2e-05 0 2.23418 0 2650 
446 1 0.101555 0.00125307 0.023987 4.2e-05 0 -7 0 2650 
400 1 0.131378 0.00138207 0.023773 4.2e-05 0 -7 0 2650 
1812 1 0.145705 0.00103607 0.02396 0.000423 0 -7 0 2650 
1263 1 0.073086 0.00172707 0.023941 0.000423 0 -7 0 2650 
2223 1 0.0638748 0.00259886 0.0235711 0.000423 -0.895355 -4.61929 -1.78423 2650 
617 1 0.041439 0.000553786 0.024608 0.000423 0 2.23951 0 2650 
958 1 0.054851 0.00084207 0.024231 0.000116 0 -7 0 2650 
47 1 0.085962 0.000732322 0.024809 0.000423 0 2.23961 0 2650 
544 1 0.096732 0.000833804 0.024122 0.000656 0 2.23969 0 2650 
2269 1 0.138223 0.000410712 0.024436 0.000423 0 2.66846 0 2650 
828 1 0.159183 0.00081307 0.024535 0.000116 0 -7 0 2650 
1583 1 0.023207 0.00152307 0.02431 0.000423 0 -7 0 2650 
339 1 0.035201 0.00105307 0.024381 0.000423 0 -7 0 2650 
2381 1 0.054499 0.00144707 0.024569 0.000116 0 -7 0 2650 
1056 1 0.129981 0.00144107 0.024264 0.000656 0 -7 0 2650 
1225 1 0.148005 0.00099602 0.024592 0.000656 0 2.23968 0 2650 
2136 1 0.002327 0.00174107 0.024891 0.000116 0 -7 0 2650 
2499 1 0.137558 5.907e-05 0.025442 4.2e-05 0 -7 0 2650 
331 1 0.008847 0.000364507 0.025112 0.000116 0 2.23824 0 2650 
1935 1 0.054785 0.000383362 0.025329 0.000116 0 2.23815 0 2650 
719 1 0.0646852 0.000608375 0.0250365 0.000656 0.270243 -5.3198 0.331136 2650 
437 1 0.068747 0.000650119 0.024959 0.000656 0 -6.86802 0 2650 
1104 1 0.096386 0.000499082 0.025692 0.000423 0 2.23961 0 2650 
2375 1 0.039706 0.00111007 0.024993 0.000116 0 -7 0 2650 
1374 1 0.0634117 0.00106421 0.0252729 0.000423 -0.361537 -7.01054 0.201708 2650 
2356 1 0.082785 0.00140607 0.025415 0.000116 0 -7 0 2650 
1745 1 0.10678 0.00128307 0.025316 0.000423 0 -7 0 2650 
120 1 0.124076 0.00145807 0.025565 0.000423 0 -7 0 2650 
2009 1 0.136827 0.00164407 0.02526 0.000656 0 -7 0 2650 
2283 1 0.075251 0.00011926 0.026091 0.000116 0 2.23815 0 2650 
1025 1 0.086945 0.000665507 0.025794 0.000656 0 2.23969 0 2650 
130 1 0.115638 0.00078607 0.026445 0.000116 0 -7 0 2650 
2126 1 0.133494 0.00056507 0.025818 4.2e-05 0 -7 0 2650 
441 1 0.136743 0.000188036 0.025781 0.000116 0 2.23914 0 2650 
1942 1 0.145658 0.00065607 0.025799 4.2e-05 0 -7 0 2650 
631 1 0.153063 0.00046807 0.025957 0.000423 0 -7 0 2650 
86 1 0.158832 0.00044907 0.026032 0.000116 0 -7 0 2650 
2409 1 0.045373 0.00158207 0.026375 0.000116 0 -7 0 2650 
930 1 0.077129 0.00089407 0.025773 0.000423 0 -7 0 2650 
2056 1 0.156272 0.00126907 0.026115 0.000116 0 -7 0 2650 
2469 1 0.071532 0.00178607 0.025811 0.000116 0 -7 0 2650 
1319 1 0.091555 0.00169507 0.0258 0.000423 0 -7 0 2650 
1490 1 0.010825 0.000379668 0.026744 0.000423 0 1.84227 0 2650 
2149 1 0.020829 0.00063807 0.02721 0.000116 0 -7 0 2650 
1153 1 0.0286088 0.000230486 0.027085 0.000116 -17.742 2.87747 -9.1319 2650 
70 1 0.048533 0.000597618 0.0270126 0.000423 -9.19664 2.2641 0.0674612 2650 
1638 1 0.051593 0.000582285 0.026922 0.000656 0 -0.375408 0 2650 
1777 1 0.057211 0.00053807 0.026905 0.000423 0 -7 0 2650 
1117 1 0.089455 0.00085907 0.026925 0.000423 0 -7 0 2650 
2262 1 0.110514 0.000410575 0.026869 0.000423 0 -6.3763 0 2650 
977 1 0.13334 0.000297203 0.026793 4.2e-05 0 2.23441 0 2650 
428 1 0.156242 0.000409946 0.026554 0.000423 0 2.69201 0 2650 
2030 1 0.02889 0.00136107 0.02685 0.000116 0 -7 0 2650 
817 1 0.075874 0.00166807 0.026873 0.000116 0 -7 0 2650 
266 1 0.081711 0.000261081 0.027512 0.000423 -6.3927 -0.607296 0 2650 
1929 1 0.092846 0.000371862 0.027856 0.000116 0 2.23825 0 2650 
1086 1 0.110601 0.000665458 0.027997 0.000423 0 2.23965 0 2650 
2405 1 0.119159 0.000284105 0.027714 0.000423 0 -6.94798 -0.0520225 2650 
1400 1 0.131684 0.000376847 0.027456 0.000423 0 1.16804 0 2650 
2107 1 0.138375 0.000243642 0.027461 0.000116 0 2.23824 0 2650 
1482 1 0.157259 0.00083507 0.027332 4.2e-05 0 -7 0 2650 
1722 1 0.015485 0.00150807 0.02792 0.000423 0 -7 0 2650 
458 1 0.023778 0.00145107 0.02804 0.000116 0 -7 0 2650 
721 1 0.103254 0.00096007 0.027601 0.000656 0 -7 0 2650 
571 1 0.123616 0.00130607 0.027453 0.000423 0 -7 0 2650 
1195 1 0.159417 0.00087907 0.027491 4.2e-05 0 -7 0 2650 
567 1 0.012167 0.000225736 0.028577 0.000116 0 2.23824 0 2650 
1740 1 0.044597 0.00022707 0.028771 0.000116 0 -7 0 2650 
882 1 0.08832 0.00078307 0.028089 0.000116 0 -7 0 2650 
1562 1 0.106581 0.00084107 0.028147 4.2e-05 0 -7 0 2650 
1076 1 0.006655 0.00160307 0.028645 4.2e-05 0 -7 0 2650 
1662 1 0.009982 0.00142407 0.028422 0.000116 0 -7 0 2650 
1340 1 0.0470719 0.00135672 0.0282424 0.000656 -5.71693 -5.65723 -4.08934 2650 
2359 1 0.065394 0.00155507 0.028807 0.000656 0 -7 0 2650 
261 1 0.068779 0.00153507 0.028837 0.000423 0 -7 0 2650 
318 1 0.078017 0.00145807 0.028737 0.000423 0 -7 0 2650 
1320 1 0.088834 0.00112907 0.028395 0.000116 0 -7 0 2650 
2059 1 0.066155 0.00169607 0.028516 4.2e-05 0 -7 0 2650 
271 1 0.023654 0.00076807 0.02955 0.000116 0 -7 0 2650 
66 1 0.028179 0.00079107 0.028997 0.000423 0 -7 0 2650 
1763 1 0.047656 0.0006373 0.029583 0.000423 0 2.23963 0 2650 
956 1 0.077236 0.00067707 0.029149 0.000423 0 -7 0 2650 
1177 1 0.078504 0.000701594 0.029338 0.000423 0 2.23951 0 2650 
1470 1 0.12141 0.00060307 0.029441 4.2e-05 0 -7 0 2650 
2058 1 0.131828 0.000706073 0.029473 0.000423 0 2.23951 0 2650 
1622 1 0.148534 0.00019907 0.028927 0.000116 0 -7 0 2650 
1930 1 0.155149 0.00046907 0.029092 0.000116 0 -7 0 2650 
1915 1 0.030283 0.000999541 0.029516 0.000656 0 2.23969 0 2650 
431 1 0.152539 0.00152107 0.029046 0.000656 0 -7 0 2650 
682 1 0.088745 0.00171507 0.029072 0.000116 0 -7 0 2650 
2494 1 0.112264 0.00177707 0.029261 0.000116 0 -7 0 2650 
709 1 0.0731 0.000250601 0.030266 4.2e-05 0 2.23441 0 2650 
1489 1 0.085601 0.000705126 0.029983 0.000423 0 2.23961 0 2650 
2170 1 0.091337 0.000586713 0.030379 0.000656 0 1.57928 0 2650 
71 1 0.106422 0.00150207 0.030376 0.000423 0 -7 0 2650 
2480 1 0.014403 0.00177407 0.029889 0.000423 0 -7 0 2650 
620 1 0.130104 0.00177307 0.029694 0.000423 0 -7 0 2650 
832 1 0.131801 0.00165307 0.030002 0.000423 0 -7 0 2650 
1950 1 0.022167 0.000699687 0.030465 0.000423 0 2.23961 0 2650 
877 1 0.039966 0.00081907 0.03105 0.000116 0 -7 0 2650 
944 1 0.0546621 0.000751484 0.0308492 0.000116 5.13302 -5.09061 -4.26128 2650 
1943 1 0.078682 0.00086107 0.031037 0.000116 0 -7 0 2650 
336 1 0.087181 0.000852681 0.030702 0.000656 0 2.23968 0 2650 
774 1 0.11455 0.000204991 0.030516 0.000116 0 2.23917 0 2650 
602 1 0.116328 0.000375623 0.030689 0.000423 0 0.529225 0 2650 
2124 1 0.154316 0.000527237 0.031201 0.000423 0 2.23961 0 2650 
1122 1 0.155298 0.000729762 0.030545 0.000423 0 2.23961 0 2650 
1603 1 0.023098 0.00164307 0.030883 0.000423 0 -7 0 2650 
1238 1 0.104414 0.00138907 0.030915 0.000116 0 -7 0 2650 
1775 1 0.150402 0.00106307 0.030808 4.2e-05 0 -7 0 2650 
1987 1 0.071649 0.00165207 0.030617 0.000116 0 -7 0 2650 
636 1 0.009596 0.000326862 0.031372 0.000116 0 2.23914 0 2650 
162 1 0.0370657 0.000538617 0.0314378 0.000423 0.410581 -6.95874 0.211328 2650 
857 1 0.064491 0.000692968 0.03123 0.000423 0 2.23961 0 2650 
2023 1 0.149882 0.00077407 0.031951 0.000423 0 -7 0 2650 
800 1 0.151611 0.00070031 0.03144 0.000423 0 2.23948 0 2650 
420 1 0.025512 0.00161107 0.03125 0.000116 0 -7 0 2650 
1175 1 0.025974 0.00145007 0.031548 0.000116 0 -7 0 2650 
1838 1 0.045964 0.00155207 0.031543 0.000116 0 -7 0 2650 
1333 1 0.016229 0.00178807 0.031514 0.000423 0 -7 0 2650 
1417 1 0.119202 0.00165907 0.03136 0.000656 0 -7 0 2650 
752 1 0.062391 0.000141965 0.032608 0.000116 0 2.23849 0 2650 
406 1 0.0922591 7.6526e-05 0.0327394 0.000423 5.37152 -1.48479 0.143685 2650 